# vtk DataFile Version 3.0
#This file was generated by the deal.II library on 2018/6/20 at 8:35:57
ASCII
DATASET UNSTRUCTURED_GRID

POINTS 4096 double
0 0.5 0
0.03125 0.5 0
0 0.53125 0
0.03125 0.53125 0
0.03125 0.5 0
0.0625 0.5 0
0.03125 0.53125 0
0.0625 0.53125 0
0 0.53125 0
0.03125 0.53125 0
0 0.5625 0
0.03125 0.5625 0
0.03125 0.53125 0
0.0625 0.53125 0
0.03125 0.5625 0
0.0625 0.5625 0
0.0625 0.5 0
0.09375 0.5 0
0.0625 0.53125 0
0.09375 0.53125 0
0.09375 0.5 0
0.125 0.5 0
0.09375 0.53125 0
0.125 0.53125 0
0.0625 0.53125 0
0.09375 0.53125 0
0.0625 0.5625 0
0.09375 0.5625 0
0.09375 0.53125 0
0.125 0.53125 0
0.09375 0.5625 0
0.125 0.5625 0
0 0.5625 0
0.03125 0.5625 0
0 0.59375 0
0.03125 0.59375 0
0.03125 0.5625 0
0.0625 0.5625 0
0.03125 0.59375 0
0.0625 0.59375 0
0 0.59375 0
0.03125 0.59375 0
0 0.625 0
0.03125 0.625 0
0.03125 0.59375 0
0.0625 0.59375 0
0.03125 0.625 0
0.0625 0.625 0
0.0625 0.5625 0
0.09375 0.5625 0
0.0625 0.59375 0
0.09375 0.59375 0
0.09375 0.5625 0
0.125 0.5625 0
0.09375 0.59375 0
0.125 0.59375 0
0.0625 0.59375 0
0.09375 0.59375 0
0.0625 0.625 0
0.09375 0.625 0
0.09375 0.59375 0
0.125 0.59375 0
0.09375 0.625 0
0.125 0.625 0
0.125 0.5 0
0.15625 0.5 0
0.125 0.53125 0
0.15625 0.53125 0
0.15625 0.5 0
0.1875 0.5 0
0.15625 0.53125 0
0.1875 0.53125 0
0.125 0.53125 0
0.15625 0.53125 0
0.125 0.5625 0
0.15625 0.5625 0
0.15625 0.53125 0
0.1875 0.53125 0
0.15625 0.5625 0
0.1875 0.5625 0
0.1875 0.5 0
0.21875 0.5 0
0.1875 0.53125 0
0.21875 0.53125 0
0.21875 0.5 0
0.25 0.5 0
0.21875 0.53125 0
0.25 0.53125 0
0.1875 0.53125 0
0.21875 0.53125 0
0.1875 0.5625 0
0.21875 0.5625 0
0.21875 0.53125 0
0.25 0.53125 0
0.21875 0.5625 0
0.25 0.5625 0
0.125 0.5625 0
0.15625 0.5625 0
0.125 0.59375 0
0.15625 0.59375 0
0.15625 0.5625 0
0.1875 0.5625 0
0.15625 0.59375 0
0.1875 0.59375 0
0.125 0.59375 0
0.15625 0.59375 0
0.125 0.625 0
0.15625 0.625 0
0.15625 0.59375 0
0.1875 0.59375 0
0.15625 0.625 0
0.1875 0.625 0
0.1875 0.5625 0
0.21875 0.5625 0
0.1875 0.59375 0
0.21875 0.59375 0
0.21875 0.5625 0
0.25 0.5625 0
0.21875 0.59375 0
0.25 0.59375 0
0.1875 0.59375 0
0.21875 0.59375 0
0.1875 0.625 0
0.21875 0.625 0
0.21875 0.59375 0
0.25 0.59375 0
0.21875 0.625 0
0.25 0.625 0
0 0.625 0
0.03125 0.625 0
0 0.65625 0
0.03125 0.65625 0
0.03125 0.625 0
0.0625 0.625 0
0.03125 0.65625 0
0.0625 0.65625 0
0 0.65625 0
0.03125 0.65625 0
0 0.6875 0
0.03125 0.6875 0
0.03125 0.65625 0
0.0625 0.65625 0
0.03125 0.6875 0
0.0625 0.6875 0
0.0625 0.625 0
0.09375 0.625 0
0.0625 0.65625 0
0.09375 0.65625 0
0.09375 0.625 0
0.125 0.625 0
0.09375 0.65625 0
0.125 0.65625 0
0.0625 0.65625 0
0.09375 0.65625 0
0.0625 0.6875 0
0.09375 0.6875 0
0.09375 0.65625 0
0.125 0.65625 0
0.09375 0.6875 0
0.125 0.6875 0
0 0.6875 0
0.03125 0.6875 0
0 0.71875 0
0.03125 0.71875 0
0.03125 0.6875 0
0.0625 0.6875 0
0.03125 0.71875 0
0.0625 0.71875 0
0 0.71875 0
0.03125 0.71875 0
0 0.75 0
0.03125 0.75 0
0.03125 0.71875 0
0.0625 0.71875 0
0.03125 0.75 0
0.0625 0.75 0
0.0625 0.6875 0
0.09375 0.6875 0
0.0625 0.71875 0
0.09375 0.71875 0
0.09375 0.6875 0
0.125 0.6875 0
0.09375 0.71875 0
0.125 0.71875 0
0.0625 0.71875 0
0.09375 0.71875 0
0.0625 0.75 0
0.09375 0.75 0
0.09375 0.71875 0
0.125 0.71875 0
0.09375 0.75 0
0.125 0.75 0
0.125 0.625 0
0.15625 0.625 0
0.125 0.65625 0
0.15625 0.65625 0
0.15625 0.625 0
0.1875 0.625 0
0.15625 0.65625 0
0.1875 0.65625 0
0.125 0.65625 0
0.15625 0.65625 0
0.125 0.6875 0
0.15625 0.6875 0
0.15625 0.65625 0
0.1875 0.65625 0
0.15625 0.6875 0
0.1875 0.6875 0
0.1875 0.625 0
0.21875 0.625 0
0.1875 0.65625 0
0.21875 0.65625 0
0.21875 0.625 0
0.25 0.625 0
0.21875 0.65625 0
0.25 0.65625 0
0.1875 0.65625 0
0.21875 0.65625 0
0.1875 0.6875 0
0.21875 0.6875 0
0.21875 0.65625 0
0.25 0.65625 0
0.21875 0.6875 0
0.25 0.6875 0
0.125 0.6875 0
0.15625 0.6875 0
0.125 0.71875 0
0.15625 0.71875 0
0.15625 0.6875 0
0.1875 0.6875 0
0.15625 0.71875 0
0.1875 0.71875 0
0.125 0.71875 0
0.15625 0.71875 0
0.125 0.75 0
0.15625 0.75 0
0.15625 0.71875 0
0.1875 0.71875 0
0.15625 0.75 0
0.1875 0.75 0
0.1875 0.6875 0
0.21875 0.6875 0
0.1875 0.71875 0
0.21875 0.71875 0
0.21875 0.6875 0
0.25 0.6875 0
0.21875 0.71875 0
0.25 0.71875 0
0.1875 0.71875 0
0.21875 0.71875 0
0.1875 0.75 0
0.21875 0.75 0
0.21875 0.71875 0
0.25 0.71875 0
0.21875 0.75 0
0.25 0.75 0
0.25 0.5 0
0.28125 0.5 0
0.25 0.53125 0
0.28125 0.53125 0
0.28125 0.5 0
0.3125 0.5 0
0.28125 0.53125 0
0.3125 0.53125 0
0.25 0.53125 0
0.28125 0.53125 0
0.25 0.5625 0
0.28125 0.5625 0
0.28125 0.53125 0
0.3125 0.53125 0
0.28125 0.5625 0
0.3125 0.5625 0
0.3125 0.5 0
0.34375 0.5 0
0.3125 0.53125 0
0.34375 0.53125 0
0.34375 0.5 0
0.375 0.5 0
0.34375 0.53125 0
0.375 0.53125 0
0.3125 0.53125 0
0.34375 0.53125 0
0.3125 0.5625 0
0.34375 0.5625 0
0.34375 0.53125 0
0.375 0.53125 0
0.34375 0.5625 0
0.375 0.5625 0
0.25 0.5625 0
0.28125 0.5625 0
0.25 0.59375 0
0.28125 0.59375 0
0.28125 0.5625 0
0.3125 0.5625 0
0.28125 0.59375 0
0.3125 0.59375 0
0.25 0.59375 0
0.28125 0.59375 0
0.25 0.625 0
0.28125 0.625 0
0.28125 0.59375 0
0.3125 0.59375 0
0.28125 0.625 0
0.3125 0.625 0
0.3125 0.5625 0
0.34375 0.5625 0
0.3125 0.59375 0
0.34375 0.59375 0
0.34375 0.5625 0
0.375 0.5625 0
0.34375 0.59375 0
0.375 0.59375 0
0.3125 0.59375 0
0.34375 0.59375 0
0.3125 0.625 0
0.34375 0.625 0
0.34375 0.59375 0
0.375 0.59375 0
0.34375 0.625 0
0.375 0.625 0
0.375 0.5 0
0.40625 0.5 0
0.375 0.53125 0
0.40625 0.53125 0
0.40625 0.5 0
0.4375 0.5 0
0.40625 0.53125 0
0.4375 0.53125 0
0.375 0.53125 0
0.40625 0.53125 0
0.375 0.5625 0
0.40625 0.5625 0
0.40625 0.53125 0
0.4375 0.53125 0
0.40625 0.5625 0
0.4375 0.5625 0
0.4375 0.5 0
0.46875 0.5 0
0.4375 0.53125 0
0.46875 0.53125 0
0.46875 0.5 0
0.5 0.5 0
0.46875 0.53125 0
0.5 0.53125 0
0.4375 0.53125 0
0.46875 0.53125 0
0.4375 0.5625 0
0.46875 0.5625 0
0.46875 0.53125 0
0.5 0.53125 0
0.46875 0.5625 0
0.5 0.5625 0
0.375 0.5625 0
0.40625 0.5625 0
0.375 0.59375 0
0.40625 0.59375 0
0.40625 0.5625 0
0.4375 0.5625 0
0.40625 0.59375 0
0.4375 0.59375 0
0.375 0.59375 0
0.40625 0.59375 0
0.375 0.625 0
0.40625 0.625 0
0.40625 0.59375 0
0.4375 0.59375 0
0.40625 0.625 0
0.4375 0.625 0
0.4375 0.5625 0
0.46875 0.5625 0
0.4375 0.59375 0
0.46875 0.59375 0
0.46875 0.5625 0
0.5 0.5625 0
0.46875 0.59375 0
0.5 0.59375 0
0.4375 0.59375 0
0.46875 0.59375 0
0.4375 0.625 0
0.46875 0.625 0
0.46875 0.59375 0
0.5 0.59375 0
0.46875 0.625 0
0.5 0.625 0
0.25 0.625 0
0.28125 0.625 0
0.25 0.65625 0
0.28125 0.65625 0
0.28125 0.625 0
0.3125 0.625 0
0.28125 0.65625 0
0.3125 0.65625 0
0.25 0.65625 0
0.28125 0.65625 0
0.25 0.6875 0
0.28125 0.6875 0
0.28125 0.65625 0
0.3125 0.65625 0
0.28125 0.6875 0
0.3125 0.6875 0
0.3125 0.625 0
0.34375 0.625 0
0.3125 0.65625 0
0.34375 0.65625 0
0.34375 0.625 0
0.375 0.625 0
0.34375 0.65625 0
0.375 0.65625 0
0.3125 0.65625 0
0.34375 0.65625 0
0.3125 0.6875 0
0.34375 0.6875 0
0.34375 0.65625 0
0.375 0.65625 0
0.34375 0.6875 0
0.375 0.6875 0
0.25 0.6875 0
0.28125 0.6875 0
0.25 0.71875 0
0.28125 0.71875 0
0.28125 0.6875 0
0.3125 0.6875 0
0.28125 0.71875 0
0.3125 0.71875 0
0.25 0.71875 0
0.28125 0.71875 0
0.25 0.75 0
0.28125 0.75 0
0.28125 0.71875 0
0.3125 0.71875 0
0.28125 0.75 0
0.3125 0.75 0
0.3125 0.6875 0
0.34375 0.6875 0
0.3125 0.71875 0
0.34375 0.71875 0
0.34375 0.6875 0
0.375 0.6875 0
0.34375 0.71875 0
0.375 0.71875 0
0.3125 0.71875 0
0.34375 0.71875 0
0.3125 0.75 0
0.34375 0.75 0
0.34375 0.71875 0
0.375 0.71875 0
0.34375 0.75 0
0.375 0.75 0
0.375 0.625 0
0.40625 0.625 0
0.375 0.65625 0
0.40625 0.65625 0
0.40625 0.625 0
0.4375 0.625 0
0.40625 0.65625 0
0.4375 0.65625 0
0.375 0.65625 0
0.40625 0.65625 0
0.375 0.6875 0
0.40625 0.6875 0
0.40625 0.65625 0
0.4375 0.65625 0
0.40625 0.6875 0
0.4375 0.6875 0
0.4375 0.625 0
0.46875 0.625 0
0.4375 0.65625 0
0.46875 0.65625 0
0.46875 0.625 0
0.5 0.625 0
0.46875 0.65625 0
0.5 0.65625 0
0.4375 0.65625 0
0.46875 0.65625 0
0.4375 0.6875 0
0.46875 0.6875 0
0.46875 0.65625 0
0.5 0.65625 0
0.46875 0.6875 0
0.5 0.6875 0
0.375 0.6875 0
0.40625 0.6875 0
0.375 0.71875 0
0.40625 0.71875 0
0.40625 0.6875 0
0.4375 0.6875 0
0.40625 0.71875 0
0.4375 0.71875 0
0.375 0.71875 0
0.40625 0.71875 0
0.375 0.75 0
0.40625 0.75 0
0.40625 0.71875 0
0.4375 0.71875 0
0.40625 0.75 0
0.4375 0.75 0
0.4375 0.6875 0
0.46875 0.6875 0
0.4375 0.71875 0
0.46875 0.71875 0
0.46875 0.6875 0
0.5 0.6875 0
0.46875 0.71875 0
0.5 0.71875 0
0.4375 0.71875 0
0.46875 0.71875 0
0.4375 0.75 0
0.46875 0.75 0
0.46875 0.71875 0
0.5 0.71875 0
0.46875 0.75 0
0.5 0.75 0
0 0.75 0
0.03125 0.75 0
0 0.78125 0
0.03125 0.78125 0
0.03125 0.75 0
0.0625 0.75 0
0.03125 0.78125 0
0.0625 0.78125 0
0 0.78125 0
0.03125 0.78125 0
0 0.8125 0
0.03125 0.8125 0
0.03125 0.78125 0
0.0625 0.78125 0
0.03125 0.8125 0
0.0625 0.8125 0
0.0625 0.75 0
0.09375 0.75 0
0.0625 0.78125 0
0.09375 0.78125 0
0.09375 0.75 0
0.125 0.75 0
0.09375 0.78125 0
0.125 0.78125 0
0.0625 0.78125 0
0.09375 0.78125 0
0.0625 0.8125 0
0.09375 0.8125 0
0.09375 0.78125 0
0.125 0.78125 0
0.09375 0.8125 0
0.125 0.8125 0
0 0.8125 0
0.03125 0.8125 0
0 0.84375 0
0.03125 0.84375 0
0.03125 0.8125 0
0.0625 0.8125 0
0.03125 0.84375 0
0.0625 0.84375 0
0 0.84375 0
0.03125 0.84375 0
0 0.875 0
0.03125 0.875 0
0.03125 0.84375 0
0.0625 0.84375 0
0.03125 0.875 0
0.0625 0.875 0
0.0625 0.8125 0
0.09375 0.8125 0
0.0625 0.84375 0
0.09375 0.84375 0
0.09375 0.8125 0
0.125 0.8125 0
0.09375 0.84375 0
0.125 0.84375 0
0.0625 0.84375 0
0.09375 0.84375 0
0.0625 0.875 0
0.09375 0.875 0
0.09375 0.84375 0
0.125 0.84375 0
0.09375 0.875 0
0.125 0.875 0
0.125 0.75 0
0.15625 0.75 0
0.125 0.78125 0
0.15625 0.78125 0
0.15625 0.75 0
0.1875 0.75 0
0.15625 0.78125 0
0.1875 0.78125 0
0.125 0.78125 0
0.15625 0.78125 0
0.125 0.8125 0
0.15625 0.8125 0
0.15625 0.78125 0
0.1875 0.78125 0
0.15625 0.8125 0
0.1875 0.8125 0
0.1875 0.75 0
0.21875 0.75 0
0.1875 0.78125 0
0.21875 0.78125 0
0.21875 0.75 0
0.25 0.75 0
0.21875 0.78125 0
0.25 0.78125 0
0.1875 0.78125 0
0.21875 0.78125 0
0.1875 0.8125 0
0.21875 0.8125 0
0.21875 0.78125 0
0.25 0.78125 0
0.21875 0.8125 0
0.25 0.8125 0
0.125 0.8125 0
0.15625 0.8125 0
0.125 0.84375 0
0.15625 0.84375 0
0.15625 0.8125 0
[...]
POINT_DATA 4096
SCALARS State_InstatPDEProblemContainer_0 double 1
LOOKUP_TABLE default
-0.000250099 -0.000250097 -0.000267609 -0.000267626 -0.000250097 -0.000250092 -0.000267626 -0.00026768 -0.000267609 -0.000267626 -0.000285051 -0.000285087 -0.000267626 -0.00026768 -0.000285087 -0.000285196 -0.000250092 -0.000250084 -0.00026768 -0.000267772 -0.000250084 -0.000250072 -0.000267772 -0.000267907 -0.00026768 -0.000267772 -0.000285196 -0.000285382 -0.000267772 -0.000267907 -0.000285382 -0.000285653 -0.000285051 -0.000285087 -0.000302355 -0.000302407 -0.000285087 -0.000285196 -0.000302407 -0.000302564 -0.000302355 -0.000302407 -0.000319458 -0.000319523 -0.000302407 -0.000302564 -0.000319523 -0.000319718 -0.000285196 -0.000285382 -0.000302564 -0.000302832 -0.000285382 -0.000285653 -0.000302832 -0.00030322 -0.000302564 -0.000302832 -0.000319718 -0.000320051 -0.000302832 -0.00030322 -0.000320051 -0.00032053 -0.000250072 -0.000250056 -0.000267907 -0.000268089 -0.000250056 -0.000250036 -0.000268089 -0.000268328 -0.000267907 -0.000268089 -0.000285653 -0.00028602 -0.000268089 -0.000268328 -0.00028602 -0.000286498 -0.000250036 -0.00025001 -0.000268328 -0.000268638 -0.00025001 -0.000249979 -0.000268638 -0.000269036 -0.000268328 -0.000268638 -0.000286498 -0.000287112 -0.000268638 -0.000269036 -0.000287112 -0.000287895 -0.000285653 -0.00028602 -0.00030322 -0.000303743 -0.00028602 -0.000286498 -0.000303743 -0.00030442 -0.00030322 -0.000303743 -0.00032053 -0.00032117 -0.000303743 -0.00030442 -0.00032117 -0.000321993 -0.000286498 -0.000287112 -0.00030442 -0.00030528 -0.000287112 -0.000287895 -0.00030528 -0.000306364 -0.00030442 -0.00030528 -0.000321993 -0.000323026 -0.00030528 -0.000306364 -0.000323026 -0.000324307 -0.000319458 -0.000319523 -0.000336306 -0.00033638 -0.000319523 -0.000319718 -0.00033638 -0.000336602 -0.000336306 -0.00033638 -0.000352855 -0.000352934 -0.00033638 -0.000336602 -0.000352934 -0.000353172 -0.000319718 -0.000320051 -0.000336602 -0.000336979 -0.000320051 -0.00032053 -0.000336979 -0.000337519 -0.000336602 -0.000336979 -0.000353172 -0.000353573 -0.000336979 -0.000337519 -0.000353573 -0.000354145 -0.000352855 -0.000352934 -0.000369074 -0.000369154 -0.000352934 -0.000353172 -0.000369154 -0.000369397 -0.000369074 -0.000369154 -0.000384943 -0.000385022 -0.000369154 -0.000369397 -0.000385022 -0.000385259 -0.000353172 -0.000353573 -0.000369397 -0.000369804 -0.000353573 -0.000354145 -0.000369804 -0.00037038 -0.000369397 -0.000369804 -0.000385259 -0.000385655 -0.000369804 -0.00037038 -0.000385655 -0.000386213 -0.00032053 -0.00032117 -0.000337519 -0.000338236 -0.00032117 -0.000321993 -0.000338236 -0.000339148 -0.000337519 -0.000338236 -0.000354145 -0.000354898 -0.000338236 -0.000339148 -0.000354898 -0.000355844 -0.000321993 -0.000323026 -0.000339148 -0.000340277 -0.000323026 -0.000324307 -0.000340277 -0.000341652 -0.000339148 -0.000340277 -0.000355844 -0.000356999 -0.000340277 -0.000341652 -0.000356999 -0.000358379 -0.000354145 -0.000354898 -0.00037038 -0.000371132 -0.000354898 -0.000355844 -0.000371132 -0.000372066 -0.00037038 -0.000371132 -0.000386213 -0.000386934 -0.000371132 -0.000372066 -0.000386934 -0.000387821 -0.000355844 -0.000356999 -0.000372066 -0.00037319 -0.000356999 -0.000358379 -0.00037319 -0.00037451 -0.000372066 -0.00037319 -0.000387821 -0.000388872 -0.00037319 -0.00037451 -0.000388872 -0.000390085 -0.000249979 -0.000249941 -0.000269036 -0.000269553 -0.000249941 -0.000249893 -0.000269553 -0.000270232 -0.000269036 -0.000269553 -0.000287895 -0.000288897 -0.000269553 -0.000270232 -0.000288897 -0.000290192 -0.000249893 -0.000249835 -0.000270232 -0.000271147 -0.000249835 -0.000249761 -0.000271147 -0.000272424 -0.000270232 -0.000271147 -0.000290192 -0.000291892 -0.000271147 -0.000272424 -0.000291892 -0.000294173 -0.000287895 -0.000288897 -0.000306364 -0.000307726 -0.000288897 -0.000290192 -0.000307726 -0.000309445 -0.000306364 -0.000307726 -0.000324307 -0.000325883 -0.000307726 -0.000309445 -0.000325883 -0.000327815 -0.000290192 -0.000291892 -0.000309445 -0.000311624 -0.000291892 -0.000294173 -0.000311624 -0.000314404 -0.000309445 -0.000311624 -0.000327815 -0.000330171 -0.000311624 -0.000314404 -0.000330171 -0.000333017 -0.000249761 -0.000249663 -0.000272424 -0.000274299 -0.000249663 -0.00024952 -0.000274299 -0.000277281 -0.000272424 -0.000274299 -0.000294173 -0.000297322 -0.000274299 -0.000277281 -0.000297322 -0.000301769 -0.00024952 -0.000249253 -0.000277281 -0.00028254 -0.000249253 -0.000248878 -0.00028254 -0.000294034 -0.000277281 -0.00028254 -0.000301769 -0.000308161 -0.00028254 -0.000294034 -0.000308161 -0.000314907 -0.000294173 -0.000297322 -0.000314404 -0.000317947 -0.000297322 -0.000301769 -0.000317947 -0.000322389 -0.000314404 -0.000317947 -0.000333017 -0.000336386 -0.000317947 -0.000322389 -0.000336386 -0.000340177 -0.000301769 -0.000308161 -0.000322389 -0.000327397 -0.000308161 -0.000314907 -0.000327397 -0.000332537 -0.000322389 -0.000327397 -0.000340177 -0.000344154 -0.000327397 -0.000332537 -0.000344154 -0.000347977 -0.000324307 -0.000325883 -0.000341652 -0.000343305 -0.000325883 -0.000327815 -0.000343305 -0.000345271 -0.000341652 -0.000343305 -0.000358379 -0.000360001 -0.000343305 -0.000345271 -0.000360001 -0.000361874 -0.000327815 -0.000330171 -0.000345271 -0.000347577 -0.000330171 -0.000333017 -0.000347577 -0.000350227 -0.000345271 -0.000347577 -0.000361874 -0.000363993 -0.000347577 -0.000350227 -0.000363993 -0.000366328 -0.000358379 -0.000360001 -0.00037451 -0.000376025 -0.000360001 -0.000361874 -0.000376025 -0.000377728 -0.00037451 -0.000376025 -0.000390085 -0.000391448 -0.000376025 -0.000377728 -0.000391448 -0.000392943 -0.000361874 -0.000363993 -0.000377728 -0.000379595 -0.000363993 -0.000366328 -0.000379595 -0.000381582 -0.000377728 -0.000379595 -0.000392943 -0.000394538 -0.000379595 -0.000381582 -0.000394538 -0.000396186 -0.000333017 -0.000336386 -0.000350227 -0.000353175 -0.000336386 -0.000340177 -0.000353175 -0.000356299 -0.000350227 -0.000353175 -0.000366328 -0.00036881 -0.000353175 -0.000356299 -0.00036881 -0.000371327 -0.000340177 -0.000344154 -0.000356299 -0.000359407 -0.000344154 -0.000347977 -0.000359407 -0.000362331 -0.000356299 -0.000359407 -0.000371327 -0.000373754 -0.000359407 -0.000362331 -0.000373754 -0.000375991 -0.000366328 -0.00036881 -0.000381582 -0.000383619 -0.00036881 -0.000371327 -0.000383619 -0.000385621 -0.000381582 -0.000383619 -0.000396186 -0.000397827 -0.000383619 -0.000385621 -0.000397827 -0.000399394 -0.000371327 -0.000373754 -0.000385621 -0.0003875 -0.000373754 -0.000375991 -0.0003875 -0.000389201 -0.000385621 -0.0003875 -0.000399394 -0.000400831 -0.0003875 -0.000389201 -0.000400831 -0.000402105 -0.000384943 -0.000385022 -0.000400453 -0.000400527 -0.000385022 -0.000385259 -0.000400527 -0.000400751 -0.000400453 -0.000400527 -0.000415604 -0.000415672 -0.000400527 -0.000400751 -0.000415672 -0.000415876 -0.000385259 -0.000385655 -0.000400751 -0.000401124 -0.000385655 -0.000386213 -0.000401124 -0.000401645 -0.000400751 -0.000401124 -0.000415876 -0.000416215 -0.000401124 -0.000401645 -0.000416215 -0.000416686 -0.000415604 -0.000415672 -0.000430407 -0.000430467 -0.000415672 -0.000415876 -0.000430467 -0.000430647 -0.000430407 -0.000430467 -0.000444877 -0.000444928 -0.000430467 -0.000430647 -0.000444928 -0.000445079 -0.000415876 -0.000416215 -0.000430647 -0.000430944 -0.000416215 -0.000416686 -0.000430944 -0.000431355 -0.000430647 -0.000430944 -0.000445079 -0.000445329 -0.000430944 -0.000431355 -0.000445329 -0.000445673 -0.000386213 -0.000386934 -0.000401645 -0.000402313 -0.000386934 -0.000387821 -0.000402313 -0.000403126 -0.000401645 -0.000402313 -0.000416686 -0.000417286 -0.000402313 -0.000403126 -0.000417286 -0.000418007 -0.000387821 -0.000388872 -0.000403126 -0.000404076 -0.000388872 -0.000390085 -0.000404076 -0.000405155 -0.000403126 -0.000404076 -0.000418007 -0.00041884 -0.000404076 -0.000405155 -0.00041884 -0.000419771 -0.000416686 -0.000417286 -0.000431355 -0.000431874 -0.000417286 -0.000418007 -0.000431874 -0.000432493 -0.000431355 -0.000431874 -0.000445673 -0.000446104 -0.000431874 -0.000432493 -0.000446104 -0.000446614 -0.000418007 -0.00041884 -0.000432493 -0.0004332 -0.00041884 -0.000419771 -0.0004332 -0.000433979 -0.000432493 -0.0004332 -0.000446614 -0.000447191 -0.0004332 -0.000433979 -0.000447191 -0.000447818 -0.000444877 -0.000444928 -0.000459039 -0.000459079 -0.000444928 -0.000445079 -0.000459079 -0.000459199 -0.000459039 -0.000459079 -0.000472921 -0.000472949 -0.000459079 -0.000459199 -0.000472949 -0.000473034 -0.000445079 -0.000445329 -0.000459199 -0.000459396 -0.000445329 -0.000445673 -0.000459396 -0.000459666 -0.000459199 -0.000459396 -0.000473034 -0.000473173 -0.000459396 -0.000459666 -0.000473173 -0.000473363 -0.000472921 -0.000472949 -0.00048656 -0.000486575 -0.000472949 -0.000473034 -0.000486575 -0.000486621 -0.00048656 -0.000486575 -0.0005 -0.0005 -0.000486575 -0.000486621 -0.0005 -0.0005 -0.000473034 -0.000473173 -0.000486621 -0.000486694 -0.000473173 -0.000473363 -0.000486694 -0.000486795 -0.000486621 -0.000486694 -0.0005 -0.0005 -0.000486694 -0.000486795 -0.0005 -0.0005 -0.000445673 -0.000446104 -0.000459666 -0.000460003 -0.000446104 -0.000446614 -0.000460003 -0.000460399 -0.000459666 -0.000460003 -0.000473363 -0.000473599 -0.000460003 -0.000460399 -0.000473599 -0.000473874 -0.000446614 -0.000447191 -0.000460399 -0.000460842 -0.000447191 -0.000447818 -0.000460842 -0.00046132 -0.000460399 -0.000460842 -0.000473874 -0.000474181 -0.000460842 -0.00046132 -0.000474181 -0.000474507 -0.000473363 -0.000473599 -0.000486795 -0.000486921 -0.000473599 -0.000473874 -0.000486921 -0.000487066 -0.000486795 -0.000486921 -0.0005 -0.0005 -0.000486921 -0.000487066 -0.0005 -0.0005 -0.000473874 -0.000474181 -0.000487066 -0.000487227 -0.000474181 -0.000474507 -0.000487227 -0.000487398 -0.000487066 -0.000487227 -0.0005 -0.0005 -0.000487227 -0.000487398 -0.0005 -0.0005 -0.000390085 -0.000391448 -0.000405155 -0.000406344 -0.000391448 -0.000392943 -0.000406344 -0.00040762 -0.000405155 -0.000406344 -0.000419771 -0.000420779 -0.000406344 -0.00040762 -0.000420779 -0.00042184 -0.000392943 -0.000394538 -0.00040762 -0.000408948 -0.000394538 -0.000396186 -0.000408948 -0.000410284 -0.00040762 -0.000408948 -0.00042184 -0.000422919 -0.000408948 -0.000410284 -0.000422919 -0.000423978 -0.000419771 -0.000420779 -0.000433979 -0.000434809 -0.000420779 -0.00042184 -0.000434809 -0.000435666 -0.000433979 -0.000434809 -0.000447818 -0.000448477 -0.000434809 -0.000435666 -0.000448477 -0.000449144 -0.00042184 -0.000422919 -0.000435666 -0.000436519 -0.000422919 -0.000423978 -0.000436519 -0.000437336 -0.000435666 -0.000436519 -0.000449144 -0.000449796 -0.000436519 -0.000437336 -0.000449796 -0.000450404 -0.000396186 -0.000397827 -0.000410284 -0.00041158 -0.000397827 -0.000399394 -0.00041158 -0.000412785 -0.000410284 -0.00041158 -0.000423978 -0.000424979 -0.00041158 -0.000412785 -0.000424979 -0.000425883 -0.000399394 -0.000400831 -0.000412785 -0.000413862 -0.000400831 -0.000402105 -0.000413862 -0.000414791 -0.000412785 -0.000413862 -0.000425883 -0.000426667 -0.000413862 -0.000414791 -0.000426667 -0.000427317 -0.000423978 -0.000424979 -0.000437336 -0.000438087 -0.000424979 -0.000425883 -0.000438087 -0.000438744 -0.000437336 -0.000438087 -0.000450404 -0.000450946 -0.000438087 -0.000438744 -0.000450946 -0.0004514 -0.000425883 -0.000426667 -0.000438744 -0.00043929 -0.000426667 -0.000427317 -0.00043929 -0.000439718 -0.000438744 -0.00043929 -0.0004514 -0.000451756 -0.00043929 -0.000439718 -0.000451756 -0.00045201 -0.000447818 -0.000448477 -0.00046132 -0.000461814 -0.000448477 -0.000449144 -0.000461814 -0.000462307 -0.00046132 -0.000461814 -0.000474507 -0.000474842 -0.000461814 -0.000462307 -0.000474842 -0.00047517 -0.000449144 -0.000449796 -0.000462307 -0.000462778 -0.000449796 -0.000450404 -0.000462778 -0.000463206 -0.000462307 -0.000462778 -0.00047517 -0.000475477 -0.000462778 -0.000463206 -0.000475477 -0.000475749 -0.000474507 -0.000474842 -0.000487398 -0.00048757 -0.000474842 -0.00047517 -0.00048757 -0.000487738 -0.000487398 -0.00048757 -0.0005 -0.0005 -0.00048757 -0.000487738 -0.0005 -0.0005 -0.00047517 -0.000475477 -0.000487738 -0.000487891 -0.000475477 -0.000475749 -0.000487891 -0.000488023 -0.000487738 -0.000487891 -0.0005 -0.0005 -0.000487891 -0.000488023 -0.0005 -0.0005 -0.000450404 -0.000450946 -0.000463206 -0.000463573 -0.000450946 -0.0004514 -0.000463573 -0.000463865 -0.000463206 -0.000463573 -0.000475749 -0.000475972 -0.000463573 -0.000463865 -0.000475972 -0.000476137 -0.0004514 -0.000451756 -0.000463865 -0.000464074 -0.000451756 -0.00045201 -0.000464074 -0.0004642 -0.000463865 -0.000464074 -0.000476137 -0.000476238 -0.000464074 -0.0004642 -0.000476238 -0.000476277 -0.000475749 -0.000475972 -0.000488023 -0.000488125 -0.000475972 -0.000476137 -0.000488125 -0.000488194 -0.000488023 -0.000488125 -0.0005 -0.0005 -0.000488125 -0.000488194 -0.0005 -0.0005 -0.000476137 -0.000476238 -0.000488194 -0.000488227 -0.000476238 -0.000476277 -0.000488227 -0.000488223 -0.000488194 -0.000488227 -0.0005 -0.0005 -0.000488227 -0.000488223 -0.0005 -0.0005 -0.000248878 -0.000287071 -0.000294034 -0.000303295 -0.000287071 -0.00030974 -0.000303295 -0.000316028 -0.000294034 -0.000303295 -0.000314907 -0.000321922 -0.000303295 -0.000316028 -0.000321922 -0.000328669 -0.00030974 -0.000325147 -0.000316028 -0.000328023 -0.000325147 -0.000336809 -0.000328023 -0.000338272 -0.000316028 -0.000328023 -0.000328669 -0.000336389 -0.000328023 -0.000338272 -0.000336389 -0.000344064 -0.000314907 -0.000321922 -0.000332537 -0.000337285 -0.000321922 -0.000328669 -0.000337285 -0.00034206 -0.000332537 -0.000337285 -0.000347977 -0.000351541 -0.000337285 -0.00034206 -0.000351541 -0.000354974 -0.000328669 -0.000336389 -0.00034206 -0.000347123 -0.000336389 -0.000344064 -0.000347123 -0.000352532 -0.00034206 -0.000347123 -0.000354974 -0.000358561 -0.000347123 -0.000352532 -0.000358561 -0.000362377 -0.000336809 -0.0003461 -0.000338272 -0.000346894 -0.0003461 -0.000353703 -0.000346894 -0.000354151 -0.000338272 -0.000346894 -0.000344064 -0.000351134 -0.000346894 -0.000354151 -0.000351134 -0.00035742 -0.000353703 -0.000360002 -0.000354151 -0.000360269 -0.000360002 -0.000365245 -0.000360269 -0.000365422 -0.000354151 -0.000360269 -0.00035742 -0.000362908 -0.000360269 -0.000365422 -0.000362908 -0.000367642 -0.000344064 -0.000351134 -0.000352532 -0.000357909 -0.000351134 -0.00035742 -0.000357909 -0.000362978 -0.000352532 -0.000357909 -0.000362377 -0.000366329 -0.000357909 -0.000362978 -0.000366329 -0.00037023 -0.00035742 -0.000362908 -0.000362978 -0.000367595 -0.000362908 -0.000367642 -0.000367595 -0.000371699 -0.000362978 -0.000367595 -0.00037023 -0.000373926 -0.000367595 -0.000371699 -0.000373926 -0.000377316 -0.000347977 -0.000351541 -0.000362331 -0.000365015 -0.000351541 -0.000354974 -0.000365015 -0.00036757 -0.000362331 -0.000365015 -0.000375991 -0.000378024 -0.000365015 -0.00036757 -0.000378024 -0.000379924 -0.000354974 -0.000358561 -0.00036757 -0.00037016 -0.000358561 -0.000362377 -0.00037016 -0.000372892 -0.00036757 -0.00037016 -0.000379924 -0.000381806 -0.00037016 -0.000372892 -0.000381806 -0.000383761 -0.000375991 -0.000378024 -0.000389201 -0.000390724 -0.000378024 -0.000379924 -0.000390724 -0.000392121 -0.000389201 -0.000390724 -0.000402105 -0.000403221 -0.000390724 -0.000392121 -0.000403221 -0.00040422 -0.000379924 -0.000381806 -0.000392121 -0.000393472 -0.000381806 -0.000383761 -0.000393472 -0.00039485 -0.000392121 -0.000393472 -0.00040422 -0.00040516 -0.000393472 -0.00039485 -0.00040516 -0.000406099 -0.000362377 -0.000366329 -0.000372892 -0.000375758 -0.000366329 -0.00037023 -0.000375758 -0.000378671 -0.000372892 -0.000375758 -0.000383761 -0.000385816 -0.000375758 -0.000378671 -0.000385816 -0.00038794 -0.00037023 -0.000373926 -0.000378671 -0.00038152 -0.000373926 -0.000377316 -0.00038152 -0.00038421 -0.000378671 -0.00038152 -0.00038794 -0.000390066 -0.00038152 -0.00038421 -0.000390066 -0.000392125 -0.000383761 -0.000385816 -0.00039485 -0.000396293 -0.000385816 -0.00038794 -0.000396293 -0.000397799 -0.00039485 -0.000396293 -0.000406099 -0.000407076 -0.000396293 -0.000397799 -0.000407076 -0.000408102 -0.00038794 -0.000390066 -0.000397799 -0.000399335 -0.000390066 -0.000392125 -0.000399335 -0.000400853 -0.000397799 -0.000399335 -0.000408102 -0.000409165 -0.000399335 -0.000400853 -0.000409165 -0.000410237 -0.000365245 -0.0003696 -0.000365422 -0.00036974 -0.0003696 -0.00037319 -0.00036974 -0.000373323 -0.000365422 -0.00036974 -0.000367642 -0.000371676 -0.00036974 -0.000373323 -0.000371676 -0.000375064 -0.00037319 -0.000376103 -0.000373323 -0.000376246 -0.000376103 -0.000378407 -0.000376246 -0.000378567 -0.000373323 -0.000376246 -0.000375064 -0.000377854 -0.000376246 -0.000378567 -0.000377854 -0.000380086 -0.000367642 -0.000371676 -0.000371699 -0.000375274 -0.000371676 -0.000375064 -0.000375274 -0.000378328 -0.000371699 -0.000375274 -0.000377316 -0.000380344 -0.000375274 -0.000378328 -0.000380344 -0.000382978 -0.000375064 -0.000377854 -0.000378328 -0.000380873 -0.000377854 -0.000380086 -0.000380873 -0.000382928 -0.000378328 -0.000380873 -0.000382978 -0.000385206 -0.000380873 -0.000382928 -0.000385206 -0.000387024 -0.000378407 -0.000380152 -0.000378567 -0.000380331 -0.000380152 -0.000381374 -0.000380331 -0.000381569 -0.000378567 -0.000380331 -0.000380086 -0.00038179 -0.000380331 -0.000381569 -0.00038179 -0.00038299 -0.000381374 -0.000382098 -0.000381569 -0.000382304 -0.000382098 -0.000382338 -0.000382304 -0.000382547 -0.000381569 -0.000382304 -0.00038299 -0.000383704 -0.000382304 -0.000382547 -0.000383704 -0.000383941 -0.000380086 -0.00038179 -0.000382928 -0.000384508 -0.00038179 -0.00038299 -0.000384508 -0.000385627 -0.000382928 -0.000384508 -0.000387024 -0.000388433 -0.000384508 -0.000385627 -0.000388433 -0.000389437 -0.00038299 -0.000383704 -0.000385627 -0.000386294 -0.000383704 -0.000383941 -0.000386294 -0.000386515 -0.000385627 -0.000386294 -0.000389437 -0.000390038 -0.000386294 -0.000386515 -0.000390038 -0.000390238 -0.000377316 -0.000380344 -0.00038421 -0.00038667 -0.000380344 -0.000382978 -0.00038667 -0.000388854 -0.00038421 -0.00038667 -0.000392125 -0.00039405 -0.00038667 -0.000388854 -0.00039405 -0.000395791 -0.000382978 -0.000385206 -0.000388854 -0.000390729 -0.000385206 -0.000387024 -0.000390729 -0.000392278 -0.000388854 -0.000390729 -0.000395791 -0.000397311 -0.000390729 -0.000392278 -0.000397311 -0.000398583 -0.000392125 -0.00039405 -0.000400853 -0.000402303 -0.00039405 -0.000395791 -0.000402303 -0.000403639 -0.000400853 -0.000402303 -0.000410237 -0.000411282 -0.000402303 -0.000403639 -0.000411282 -0.000412263 -0.000395791 -0.000397311 -0.000403639 -0.000404824 -0.000397311 -0.000398583 -0.000404824 -0.000405828 -0.000403639 -0.000404824 -0.000412263 -0.000413148 -0.000404824 -0.000405828 -0.000413148 -0.000413908 -0.000387024 -0.000388433 -0.000392278 -0.00039349 -0.000388433 -0.000389437 -0.00039349 -0.000394358 -0.000392278 -0.00039349 -0.000398583 -0.000399587 -0.00039349 -0.000394358 -0.000399587 -0.000400312 -0.000389437 -0.000390038 -0.000394358 -0.00039488 -0.000390038 -0.000390238 -0.00039488 -0.000395054 -0.000394358 -0.00039488 -0.000400312 -0.000400749 -0.00039488 -0.000395054 -0.000400749 -0.000400896 -0.000398583 -0.000399587 -0.000405828 -0.000406629 -0.000399587 -0.000400312 -0.000406629 -0.000407212 -0.000405828 -0.000406629 -0.000413908 -0.000414522 -0.000406629 -0.000407212 -0.000414522 -0.000414971 -0.000400312 -0.000400749 -0.000407212 -0.000407565 -0.000400749 -0.000400896 -0.000407565 -0.000407684 -0.000407212 -0.000407565 -0.000414971 -0.000415246 -0.000407565 -0.000407684 -0.000415246 -0.000415338 -0.000402105 -0.000403221 -0.000414791 -0.000415581 -0.000403221 -0.00040422 -0.000415581 -0.000416262 -0.000414791 -0.000415581 -0.000427317 -0.000427844 -0.000415581 -0.000416262 -0.000427844 -0.000428273 -0.00040422 -0.00040516 -0.000416262 -0.000416879 -0.00040516 -0.000406099 -0.000416879 -0.000417