# vtk DataFile Version 3.0
#This file was generated by the deal.II library on 2018/6/20 at 8:30:45
ASCII
DATASET UNSTRUCTURED_GRID

POINTS 4096 double
0 0.5 0
0.03125 0.5 0
0 0.53125 0
0.03125 0.53125 0
0.03125 0.5 0
0.0625 0.5 0
0.03125 0.53125 0
0.0625 0.53125 0
0 0.53125 0
0.03125 0.53125 0
0 0.5625 0
0.03125 0.5625 0
0.03125 0.53125 0
0.0625 0.53125 0
0.03125 0.5625 0
0.0625 0.5625 0
0.0625 0.5 0
0.09375 0.5 0
0.0625 0.53125 0
0.09375 0.53125 0
0.09375 0.5 0
0.125 0.5 0
0.09375 0.53125 0
0.125 0.53125 0
0.0625 0.53125 0
0.09375 0.53125 0
0.0625 0.5625 0
0.09375 0.5625 0
0.09375 0.53125 0
0.125 0.53125 0
0.09375 0.5625 0
0.125 0.5625 0
0 0.5625 0
0.03125 0.5625 0
0 0.59375 0
0.03125 0.59375 0
0.03125 0.5625 0
0.0625 0.5625 0
0.03125 0.59375 0
0.0625 0.59375 0
0 0.59375 0
0.03125 0.59375 0
0 0.625 0
0.03125 0.625 0
0.03125 0.59375 0
0.0625 0.59375 0
0.03125 0.625 0
0.0625 0.625 0
0.0625 0.5625 0
0.09375 0.5625 0
0.0625 0.59375 0
0.09375 0.59375 0
0.09375 0.5625 0
0.125 0.5625 0
0.09375 0.59375 0
0.125 0.59375 0
0.0625 0.59375 0
0.09375 0.59375 0
0.0625 0.625 0
0.09375 0.625 0
0.09375 0.59375 0
0.125 0.59375 0
0.09375 0.625 0
0.125 0.625 0
0.125 0.5 0
0.15625 0.5 0
0.125 0.53125 0
0.15625 0.53125 0
0.15625 0.5 0
0.1875 0.5 0
0.15625 0.53125 0
0.1875 0.53125 0
0.125 0.53125 0
0.15625 0.53125 0
0.125 0.5625 0
0.15625 0.5625 0
0.15625 0.53125 0
0.1875 0.53125 0
0.15625 0.5625 0
0.1875 0.5625 0
0.1875 0.5 0
0.21875 0.5 0
0.1875 0.53125 0
0.21875 0.53125 0
0.21875 0.5 0
0.25 0.5 0
0.21875 0.53125 0
0.25 0.53125 0
0.1875 0.53125 0
0.21875 0.53125 0
0.1875 0.5625 0
0.21875 0.5625 0
0.21875 0.53125 0
0.25 0.53125 0
0.21875 0.5625 0
0.25 0.5625 0
0.125 0.5625 0
0.15625 0.5625 0
0.125 0.59375 0
0.15625 0.59375 0
0.15625 0.5625 0
0.1875 0.5625 0
0.15625 0.59375 0
0.1875 0.59375 0
0.125 0.59375 0
0.15625 0.59375 0
0.125 0.625 0
0.15625 0.625 0
0.15625 0.59375 0
0.1875 0.59375 0
0.15625 0.625 0
0.1875 0.625 0
0.1875 0.5625 0
0.21875 0.5625 0
0.1875 0.59375 0
0.21875 0.59375 0
0.21875 0.5625 0
0.25 0.5625 0
0.21875 0.59375 0
0.25 0.59375 0
0.1875 0.59375 0
0.21875 0.59375 0
0.1875 0.625 0
0.21875 0.625 0
0.21875 0.59375 0
0.25 0.59375 0
0.21875 0.625 0
0.25 0.625 0
0 0.625 0
0.03125 0.625 0
0 0.65625 0
0.03125 0.65625 0
0.03125 0.625 0
0.0625 0.625 0
0.03125 0.65625 0
0.0625 0.65625 0
0 0.65625 0
0.03125 0.65625 0
0 0.6875 0
0.03125 0.6875 0
0.03125 0.65625 0
0.0625 0.65625 0
0.03125 0.6875 0
0.0625 0.6875 0
0.0625 0.625 0
0.09375 0.625 0
0.0625 0.65625 0
0.09375 0.65625 0
0.09375 0.625 0
0.125 0.625 0
0.09375 0.65625 0
0.125 0.65625 0
0.0625 0.65625 0
0.09375 0.65625 0
0.0625 0.6875 0
0.09375 0.6875 0
0.09375 0.65625 0
0.125 0.65625 0
0.09375 0.6875 0
0.125 0.6875 0
0 0.6875 0
0.03125 0.6875 0
0 0.71875 0
0.03125 0.71875 0
0.03125 0.6875 0
0.0625 0.6875 0
0.03125 0.71875 0
0.0625 0.71875 0
0 0.71875 0
0.03125 0.71875 0
0 0.75 0
0.03125 0.75 0
0.03125 0.71875 0
0.0625 0.71875 0
0.03125 0.75 0
0.0625 0.75 0
0.0625 0.6875 0
0.09375 0.6875 0
0.0625 0.71875 0
0.09375 0.71875 0
0.09375 0.6875 0
0.125 0.6875 0
0.09375 0.71875 0
0.125 0.71875 0
0.0625 0.71875 0
0.09375 0.71875 0
0.0625 0.75 0
0.09375 0.75 0
0.09375 0.71875 0
0.125 0.71875 0
0.09375 0.75 0
0.125 0.75 0
0.125 0.625 0
0.15625 0.625 0
0.125 0.65625 0
0.15625 0.65625 0
0.15625 0.625 0
0.1875 0.625 0
0.15625 0.65625 0
0.1875 0.65625 0
0.125 0.65625 0
0.15625 0.65625 0
0.125 0.6875 0
0.15625 0.6875 0
0.15625 0.65625 0
0.1875 0.65625 0
0.15625 0.6875 0
0.1875 0.6875 0
0.1875 0.625 0
0.21875 0.625 0
0.1875 0.65625 0
0.21875 0.65625 0
0.21875 0.625 0
0.25 0.625 0
0.21875 0.65625 0
0.25 0.65625 0
0.1875 0.65625 0
0.21875 0.65625 0
0.1875 0.6875 0
0.21875 0.6875 0
0.21875 0.65625 0
0.25 0.65625 0
0.21875 0.6875 0
0.25 0.6875 0
0.125 0.6875 0
0.15625 0.6875 0
0.125 0.71875 0
0.15625 0.71875 0
0.15625 0.6875 0
0.1875 0.6875 0
0.15625 0.71875 0
0.1875 0.71875 0
0.125 0.71875 0
0.15625 0.71875 0
0.125 0.75 0
0.15625 0.75 0
0.15625 0.71875 0
0.1875 0.71875 0
0.15625 0.75 0
0.1875 0.75 0
0.1875 0.6875 0
0.21875 0.6875 0
0.1875 0.71875 0
0.21875 0.71875 0
0.21875 0.6875 0
0.25 0.6875 0
0.21875 0.71875 0
0.25 0.71875 0
0.1875 0.71875 0
0.21875 0.71875 0
0.1875 0.75 0
0.21875 0.75 0
0.21875 0.71875 0
0.25 0.71875 0
0.21875 0.75 0
0.25 0.75 0
0.25 0.5 0
0.28125 0.5 0
0.25 0.53125 0
0.28125 0.53125 0
0.28125 0.5 0
0.3125 0.5 0
0.28125 0.53125 0
0.3125 0.53125 0
0.25 0.53125 0
0.28125 0.53125 0
0.25 0.5625 0
0.28125 0.5625 0
0.28125 0.53125 0
0.3125 0.53125 0
0.28125 0.5625 0
0.3125 0.5625 0
0.3125 0.5 0
0.34375 0.5 0
0.3125 0.53125 0
0.34375 0.53125 0
0.34375 0.5 0
0.375 0.5 0
0.34375 0.53125 0
0.375 0.53125 0
0.3125 0.53125 0
0.34375 0.53125 0
0.3125 0.5625 0
0.34375 0.5625 0
0.34375 0.53125 0
0.375 0.53125 0
0.34375 0.5625 0
0.375 0.5625 0
0.25 0.5625 0
0.28125 0.5625 0
0.25 0.59375 0
0.28125 0.59375 0
0.28125 0.5625 0
0.3125 0.5625 0
0.28125 0.59375 0
0.3125 0.59375 0
0.25 0.59375 0
0.28125 0.59375 0
0.25 0.625 0
0.28125 0.625 0
0.28125 0.59375 0
0.3125 0.59375 0
0.28125 0.625 0
0.3125 0.625 0
0.3125 0.5625 0
0.34375 0.5625 0
0.3125 0.59375 0
0.34375 0.59375 0
0.34375 0.5625 0
0.375 0.5625 0
0.34375 0.59375 0
0.375 0.59375 0
0.3125 0.59375 0
0.34375 0.59375 0
0.3125 0.625 0
0.34375 0.625 0
0.34375 0.59375 0
0.375 0.59375 0
0.34375 0.625 0
0.375 0.625 0
0.375 0.5 0
0.40625 0.5 0
0.375 0.53125 0
0.40625 0.53125 0
0.40625 0.5 0
0.4375 0.5 0
0.40625 0.53125 0
0.4375 0.53125 0
0.375 0.53125 0
0.40625 0.53125 0
0.375 0.5625 0
0.40625 0.5625 0
0.40625 0.53125 0
0.4375 0.53125 0
0.40625 0.5625 0
0.4375 0.5625 0
0.4375 0.5 0
0.46875 0.5 0
0.4375 0.53125 0
0.46875 0.53125 0
0.46875 0.5 0
0.5 0.5 0
0.46875 0.53125 0
0.5 0.53125 0
0.4375 0.53125 0
0.46875 0.53125 0
0.4375 0.5625 0
0.46875 0.5625 0
0.46875 0.53125 0
0.5 0.53125 0
0.46875 0.5625 0
0.5 0.5625 0
0.375 0.5625 0
0.40625 0.5625 0
0.375 0.59375 0
0.40625 0.59375 0
0.40625 0.5625 0
0.4375 0.5625 0
0.40625 0.59375 0
0.4375 0.59375 0
0.375 0.59375 0
0.40625 0.59375 0
0.375 0.625 0
0.40625 0.625 0
0.40625 0.59375 0
0.4375 0.59375 0
0.40625 0.625 0
0.4375 0.625 0
0.4375 0.5625 0
0.46875 0.5625 0
0.4375 0.59375 0
0.46875 0.59375 0
0.46875 0.5625 0
0.5 0.5625 0
0.46875 0.59375 0
0.5 0.59375 0
0.4375 0.59375 0
0.46875 0.59375 0
0.4375 0.625 0
0.46875 0.625 0
0.46875 0.59375 0
0.5 0.59375 0
0.46875 0.625 0
0.5 0.625 0
0.25 0.625 0
0.28125 0.625 0
0.25 0.65625 0
0.28125 0.65625 0
0.28125 0.625 0
0.3125 0.625 0
0.28125 0.65625 0
0.3125 0.65625 0
0.25 0.65625 0
0.28125 0.65625 0
0.25 0.6875 0
0.28125 0.6875 0
0.28125 0.65625 0
0.3125 0.65625 0
0.28125 0.6875 0
0.3125 0.6875 0
0.3125 0.625 0
0.34375 0.625 0
0.3125 0.65625 0
0.34375 0.65625 0
0.34375 0.625 0
0.375 0.625 0
0.34375 0.65625 0
0.375 0.65625 0
0.3125 0.65625 0
0.34375 0.65625 0
0.3125 0.6875 0
0.34375 0.6875 0
0.34375 0.65625 0
0.375 0.65625 0
0.34375 0.6875 0
0.375 0.6875 0
0.25 0.6875 0
0.28125 0.6875 0
0.25 0.71875 0
0.28125 0.71875 0
0.28125 0.6875 0
0.3125 0.6875 0
0.28125 0.71875 0
0.3125 0.71875 0
0.25 0.71875 0
0.28125 0.71875 0
0.25 0.75 0
0.28125 0.75 0
0.28125 0.71875 0
0.3125 0.71875 0
0.28125 0.75 0
0.3125 0.75 0
0.3125 0.6875 0
0.34375 0.6875 0
0.3125 0.71875 0
0.34375 0.71875 0
0.34375 0.6875 0
0.375 0.6875 0
0.34375 0.71875 0
0.375 0.71875 0
0.3125 0.71875 0
0.34375 0.71875 0
0.3125 0.75 0
0.34375 0.75 0
0.34375 0.71875 0
0.375 0.71875 0
0.34375 0.75 0
0.375 0.75 0
0.375 0.625 0
0.40625 0.625 0
0.375 0.65625 0
0.40625 0.65625 0
0.40625 0.625 0
0.4375 0.625 0
0.40625 0.65625 0
0.4375 0.65625 0
0.375 0.65625 0
0.40625 0.65625 0
0.375 0.6875 0
0.40625 0.6875 0
0.40625 0.65625 0
0.4375 0.65625 0
0.40625 0.6875 0
0.4375 0.6875 0
0.4375 0.625 0
0.46875 0.625 0
0.4375 0.65625 0
0.46875 0.65625 0
0.46875 0.625 0
0.5 0.625 0
0.46875 0.65625 0
0.5 0.65625 0
0.4375 0.65625 0
0.46875 0.65625 0
0.4375 0.6875 0
0.46875 0.6875 0
0.46875 0.65625 0
0.5 0.65625 0
0.46875 0.6875 0
0.5 0.6875 0
0.375 0.6875 0
0.40625 0.6875 0
0.375 0.71875 0
0.40625 0.71875 0
0.40625 0.6875 0
0.4375 0.6875 0
0.40625 0.71875 0
0.4375 0.71875 0
0.375 0.71875 0
0.40625 0.71875 0
0.375 0.75 0
0.40625 0.75 0
0.40625 0.71875 0
0.4375 0.71875 0
0.40625 0.75 0
0.4375 0.75 0
0.4375 0.6875 0
0.46875 0.6875 0
0.4375 0.71875 0
0.46875 0.71875 0
0.46875 0.6875 0
0.5 0.6875 0
0.46875 0.71875 0
0.5 0.71875 0
0.4375 0.71875 0
0.46875 0.71875 0
0.4375 0.75 0
0.46875 0.75 0
0.46875 0.71875 0
0.5 0.71875 0
0.46875 0.75 0
0.5 0.75 0
0 0.75 0
0.03125 0.75 0
0 0.78125 0
0.03125 0.78125 0
0.03125 0.75 0
0.0625 0.75 0
0.03125 0.78125 0
0.0625 0.78125 0
0 0.78125 0
0.03125 0.78125 0
0 0.8125 0
0.03125 0.8125 0
0.03125 0.78125 0
0.0625 0.78125 0
0.03125 0.8125 0
0.0625 0.8125 0
0.0625 0.75 0
0.09375 0.75 0
0.0625 0.78125 0
0.09375 0.78125 0
0.09375 0.75 0
0.125 0.75 0
0.09375 0.78125 0
0.125 0.78125 0
0.0625 0.78125 0
0.09375 0.78125 0
0.0625 0.8125 0
0.09375 0.8125 0
0.09375 0.78125 0
0.125 0.78125 0
0.09375 0.8125 0
0.125 0.8125 0
0 0.8125 0
0.03125 0.8125 0
0 0.84375 0
0.03125 0.84375 0
0.03125 0.8125 0
0.0625 0.8125 0
0.03125 0.84375 0
0.0625 0.84375 0
0 0.84375 0
0.03125 0.84375 0
0 0.875 0
0.03125 0.875 0
0.03125 0.84375 0
0.0625 0.84375 0
0.03125 0.875 0
0.0625 0.875 0
0.0625 0.8125 0
0.09375 0.8125 0
0.0625 0.84375 0
0.09375 0.84375 0
0.09375 0.8125 0
0.125 0.8125 0
0.09375 0.84375 0
0.125 0.84375 0
0.0625 0.84375 0
0.09375 0.84375 0
0.0625 0.875 0
0.09375 0.875 0
0.09375 0.84375 0
0.125 0.84375 0
0.09375 0.875 0
0.125 0.875 0
0.125 0.75 0
0.15625 0.75 0
0.125 0.78125 0
0.15625 0.78125 0
0.15625 0.75 0
0.1875 0.75 0
0.15625 0.78125 0
0.1875 0.78125 0
0.125 0.78125 0
0.15625 0.78125 0
0.125 0.8125 0
0.15625 0.8125 0
0.15625 0.78125 0
0.1875 0.78125 0
0.15625 0.8125 0
0.1875 0.8125 0
0.1875 0.75 0
0.21875 0.75 0
0.1875 0.78125 0
0.21875 0.78125 0
0.21875 0.75 0
0.25 0.75 0
0.21875 0.78125 0
0.25 0.78125 0
0.1875 0.78125 0
0.21875 0.78125 0
0.1875 0.8125 0
0.21875 0.8125 0
0.21875 0.78125 0
0.25 0.78125 0
0.21875 0.8125 0
0.25 0.8125 0
0.125 0.8125 0
0.15625 0.8125 0
0.125 0.84375 0
0.15625 0.84375 0
0.15625 0.8125 0
[...]
POINT_DATA 4096
SCALARS State_InstatPDEProblemContainer_0 double 1
LOOKUP_TABLE default
-0.000350139 -0.000350136 -0.000374664 -0.000374689 -0.000350136 -0.00035013 -0.000374689 -0.000374765 -0.000374664 -0.000374689 -0.000399094 -0.000399145 -0.000374689 -0.000374765 -0.000399145 -0.000399298 -0.00035013 -0.000350118 -0.000374765 -0.000374894 -0.000350118 -0.000350101 -0.000374894 -0.000375083 -0.000374765 -0.000374894 -0.000399298 -0.00039956 -0.000374894 -0.000375083 -0.00039956 -0.00039994 -0.000399094 -0.000399145 -0.000423331 -0.000423403 -0.000399145 -0.000399298 -0.000423403 -0.000423624 -0.000423331 -0.000423403 -0.000447283 -0.000447374 -0.000423403 -0.000423624 -0.000447374 -0.000447648 -0.000399298 -0.00039956 -0.000423624 -0.000424 -0.00039956 -0.00039994 -0.000424 -0.000424545 -0.000423624 -0.000424 -0.000447648 -0.000448115 -0.000424 -0.000424545 -0.000448115 -0.000448787 -0.000350101 -0.000350079 -0.000375083 -0.000375339 -0.000350079 -0.00035005 -0.000375339 -0.000375675 -0.000375083 -0.000375339 -0.00039994 -0.000400454 -0.000375339 -0.000375675 -0.000400454 -0.000401125 -0.00035005 -0.000350015 -0.000375675 -0.000376109 -0.000350015 -0.000349971 -0.000376109 -0.000376668 -0.000375675 -0.000376109 -0.000401125 -0.000401986 -0.000376109 -0.000376668 -0.000401986 -0.000403085 -0.00039994 -0.000400454 -0.000424545 -0.000425277 -0.000400454 -0.000401125 -0.000425277 -0.000426227 -0.000424545 -0.000425277 -0.000448787 -0.000449685 -0.000425277 -0.000426227 -0.000449685 -0.000450839 -0.000401125 -0.000401986 -0.000426227 -0.000427434 -0.000401986 -0.000403085 -0.000427434 -0.000428954 -0.000426227 -0.000427434 -0.000450839 -0.000452288 -0.000427434 -0.000428954 -0.000452288 -0.000454084 -0.000447283 -0.000447374 -0.000470877 -0.00047098 -0.000447374 -0.000447648 -0.00047098 -0.000471292 -0.000470877 -0.00047098 -0.00049405 -0.00049416 -0.00047098 -0.000471292 -0.00049416 -0.000494494 -0.000447648 -0.000448115 -0.000471292 -0.000471821 -0.000448115 -0.000448787 -0.000471821 -0.000472578 -0.000471292 -0.000471821 -0.000494494 -0.000495056 -0.000471821 -0.000472578 -0.000495056 -0.000495858 -0.00049405 -0.00049416 -0.000516758 -0.000516871 -0.00049416 -0.000494494 -0.000516871 -0.00051721 -0.000516758 -0.000516871 -0.000538974 -0.000539084 -0.000516871 -0.00051721 -0.000539084 -0.000539416 -0.000494494 -0.000495056 -0.00051721 -0.000517781 -0.000495056 -0.000495858 -0.000517781 -0.000518589 -0.00051721 -0.000517781 -0.000539416 -0.000539972 -0.000517781 -0.000518589 -0.000539972 -0.000540754 -0.000448787 -0.000449685 -0.000472578 -0.000473584 -0.000449685 -0.000450839 -0.000473584 -0.000474862 -0.000472578 -0.000473584 -0.000495858 -0.000496913 -0.000473584 -0.000474862 -0.000496913 -0.000498239 -0.000450839 -0.000452288 -0.000474862 -0.000476444 -0.000452288 -0.000454084 -0.000476444 -0.000478372 -0.000474862 -0.000476444 -0.000498239 -0.000499858 -0.000476444 -0.000478372 -0.000499858 -0.000501793 -0.000495858 -0.000496913 -0.000518589 -0.000519642 -0.000496913 -0.000498239 -0.000519642 -0.000520952 -0.000518589 -0.000519642 -0.000540754 -0.000541764 -0.000519642 -0.000520952 -0.000541764 -0.000543006 -0.000498239 -0.000499858 -0.000520952 -0.000522527 -0.000499858 -0.000501793 -0.000522527 -0.000524375 -0.000520952 -0.000522527 -0.000543006 -0.000544479 -0.000522527 -0.000524375 -0.000544479 -0.000546177 -0.000349971 -0.000349917 -0.000376668 -0.000377393 -0.000349917 -0.000349852 -0.000377393 -0.000378346 -0.000376668 -0.000377393 -0.000403085 -0.000404491 -0.000377393 -0.000378346 -0.000404491 -0.000406307 -0.000349852 -0.00034977 -0.000378346 -0.000379629 -0.00034977 -0.000349667 -0.000379629 -0.00038142 -0.000378346 -0.000379629 -0.000406307 -0.000408691 -0.000379629 -0.00038142 -0.000408691 -0.00041189 -0.000403085 -0.000404491 -0.000428954 -0.000430865 -0.000404491 -0.000406307 -0.000430865 -0.000433274 -0.000428954 -0.000430865 -0.000454084 -0.000456294 -0.000430865 -0.000433274 -0.000456294 -0.000459001 -0.000406307 -0.000408691 -0.000433274 -0.000436329 -0.000408691 -0.00041189 -0.000436329 -0.000440226 -0.000433274 -0.000436329 -0.000459001 -0.000462303 -0.000436329 -0.000440226 -0.000462303 -0.000466293 -0.000349667 -0.000349529 -0.00038142 -0.000384049 -0.000349529 -0.00034933 -0.000384049 -0.000388231 -0.00038142 -0.000384049 -0.00041189 -0.000416305 -0.000384049 -0.000388231 -0.000416305 -0.000422537 -0.00034933 -0.000348957 -0.000388231 -0.000395604 -0.000348957 -0.000348433 -0.000395604 -0.000411713 -0.000388231 -0.000395604 -0.000422537 -0.000431497 -0.000395604 -0.000411713 -0.000431497 -0.00044095 -0.00041189 -0.000416305 -0.000440226 -0.000445193 -0.000416305 -0.000422537 -0.000445193 -0.000451418 -0.000440226 -0.000445193 -0.000466293 -0.000471014 -0.000445193 -0.000451418 -0.000471014 -0.000476324 -0.000422537 -0.000431497 -0.000451418 -0.000458434 -0.000431497 -0.00044095 -0.000458434 -0.000465636 -0.000451418 -0.000458434 -0.000476324 -0.000481896 -0.000458434 -0.000465636 -0.000481896 -0.000487251 -0.000454084 -0.000456294 -0.000478372 -0.000480689 -0.000456294 -0.000459001 -0.000480689 -0.000483444 -0.000478372 -0.000480689 -0.000501793 -0.000504065 -0.000480689 -0.000483444 -0.000504065 -0.000506689 -0.000459001 -0.000462303 -0.000483444 -0.000486675 -0.000462303 -0.000466293 -0.000486675 -0.000490389 -0.000483444 -0.000486675 -0.000506689 -0.000509658 -0.000486675 -0.000490389 -0.000509658 -0.000512929 -0.000501793 -0.000504065 -0.000524375 -0.000526498 -0.000504065 -0.000506689 -0.000526498 -0.000528883 -0.000524375 -0.000526498 -0.000546177 -0.000548087 -0.000526498 -0.000528883 -0.000548087 -0.000550181 -0.000506689 -0.000509658 -0.000528883 -0.000531498 -0.000509658 -0.000512929 -0.000531498 -0.000534281 -0.000528883 -0.000531498 -0.000550181 -0.000552414 -0.000531498 -0.000534281 -0.000552414 -0.000554721 -0.000466293 -0.000471014 -0.000490389 -0.000494519 -0.000471014 -0.000476324 -0.000494519 -0.000498894 -0.000490389 -0.000494519 -0.000512929 -0.000516405 -0.000494519 -0.000498894 -0.000516405 -0.00051993 -0.000476324 -0.000481896 -0.000498894 -0.000503247 -0.000481896 -0.000487251 -0.000503247 -0.000507342 -0.000498894 -0.000503247 -0.00051993 -0.000523328 -0.000503247 -0.000507342 -0.000523328 -0.00052646 -0.000512929 -0.000516405 -0.000534281 -0.000537134 -0.000516405 -0.00051993 -0.000537134 -0.000539935 -0.000534281 -0.000537134 -0.000554721 -0.000557018 -0.000537134 -0.000539935 -0.000557018 -0.000559212 -0.00051993 -0.000523328 -0.000539935 -0.000542566 -0.000523328 -0.00052646 -0.000542566 -0.000544948 -0.000539935 -0.000542566 -0.000559212 -0.000561223 -0.000542566 -0.000544948 -0.000561223 -0.000563006 -0.000538974 -0.000539084 -0.000560685 -0.00056079 -0.000539084 -0.000539416 -0.00056079 -0.000561103 -0.000560685 -0.00056079 -0.000581893 -0.000581989 -0.00056079 -0.000561103 -0.000581989 -0.000582275 -0.000539416 -0.000539972 -0.000561103 -0.000561625 -0.000539972 -0.000540754 -0.000561625 -0.000562355 -0.000561103 -0.000561625 -0.000582275 -0.000582749 -0.000561625 -0.000562355 -0.000582749 -0.000583409 -0.000581893 -0.000581989 -0.000602611 -0.000602695 -0.000581989 -0.000582275 -0.000602695 -0.000602947 -0.000602611 -0.000602695 -0.000622863 -0.000622934 -0.000602695 -0.000602947 -0.000622934 -0.000623146 -0.000582275 -0.000582749 -0.000602947 -0.000603363 -0.000582749 -0.000583409 -0.000603363 -0.000603939 -0.000602947 -0.000603363 -0.000623146 -0.000623495 -0.000603363 -0.000603939 -0.000623495 -0.000623977 -0.000540754 -0.000541764 -0.000562355 -0.000563292 -0.000541764 -0.000543006 -0.000563292 -0.00056443 -0.000562355 -0.000563292 -0.000583409 -0.000584248 -0.000563292 -0.00056443 -0.000584248 -0.000585258 -0.000543006 -0.000544479 -0.00056443 -0.000565761 -0.000544479 -0.000546177 -0.000565761 -0.000567271 -0.00056443 -0.000565761 -0.000585258 -0.000586424 -0.000565761 -0.000567271 -0.000586424 -0.000587728 -0.000583409 -0.000584248 -0.000603939 -0.000604666 -0.000584248 -0.000585258 -0.000604666 -0.000605532 -0.000603939 -0.000604666 -0.000623977 -0.000624581 -0.000604666 -0.000605532 -0.000624581 -0.000625295 -0.000585258 -0.000586424 -0.000605532 -0.000606522 -0.000586424 -0.000587728 -0.000606522 -0.000607612 -0.000605532 -0.000606522 -0.000625295 -0.000626101 -0.000606522 -0.000607612 -0.000626101 -0.000626979 -0.000622863 -0.000622934 -0.000642681 -0.000642737 -0.000622934 -0.000623146 -0.000642737 -0.000642905 -0.000642681 -0.000642737 -0.000662108 -0.000662147 -0.000642737 -0.000642905 -0.000662147 -0.000662266 -0.000623146 -0.000623495 -0.000642905 -0.000643181 -0.000623495 -0.000623977 -0.000643181 -0.000643559 -0.000642905 -0.000643181 -0.000662266 -0.00066246 -0.000643181 -0.000643559 -0.00066246 -0.000662726 -0.000662108 -0.000662147 -0.000681194 -0.000681215 -0.000662147 -0.000662266 -0.000681215 -0.000681278 -0.000681194 -0.000681215 -0.0007 -0.0007 -0.000681215 -0.000681278 -0.0007 -0.0007 -0.000662266 -0.00066246 -0.000681278 -0.000681381 -0.00066246 -0.000662726 -0.000681381 -0.000681523 -0.000681278 -0.000681381 -0.0007 -0.0007 -0.000681381 -0.000681523 -0.0007 -0.0007 -0.000623977 -0.000624581 -0.000643559 -0.000644031 -0.000624581 -0.000625295 -0.000644031 -0.000644585 -0.000643559 -0.000644031 -0.000662726 -0.000663056 -0.000644031 -0.000644585 -0.000663056 -0.000663442 -0.000625295 -0.000626101 -0.000644585 -0.000645206 -0.000626101 -0.000626979 -0.000645206 -0.000645874 -0.000644585 -0.000645206 -0.000663442 -0.000663871 -0.000645206 -0.000645874 -0.000663871 -0.000664328 -0.000662726 -0.000663056 -0.000681523 -0.000681698 -0.000663056 -0.000663442 -0.000681698 -0.000681902 -0.000681523 -0.000681698 -0.0007 -0.0007 -0.000681698 -0.000681902 -0.0007 -0.0007 -0.000663442 -0.000663871 -0.000681902 -0.000682127 -0.000663871 -0.000664328 -0.000682127 -0.000682365 -0.000681902 -0.000682127 -0.0007 -0.0007 -0.000682127 -0.000682365 -0.0007 -0.0007 -0.000546177 -0.000548087 -0.000567271 -0.000568936 -0.000548087 -0.000550181 -0.000568936 -0.000570723 -0.000567271 -0.000568936 -0.000587728 -0.00058914 -0.000568936 -0.000570723 -0.00058914 -0.000590624 -0.000550181 -0.000552414 -0.000570723 -0.000572582 -0.000552414 -0.000554721 -0.000572582 -0.000574453 -0.000570723 -0.000572582 -0.000590624 -0.000592134 -0.000572582 -0.000574453 -0.000592134 -0.000593617 -0.000587728 -0.00058914 -0.000607612 -0.000608774 -0.00058914 -0.000590624 -0.000608774 -0.000609973 -0.000607612 -0.000608774 -0.000626979 -0.000627901 -0.000608774 -0.000609973 -0.000627901 -0.000628836 -0.000590624 -0.000592134 -0.000609973 -0.000611167 -0.000592134 -0.000593617 -0.000611167 -0.000612311 -0.000609973 -0.000611167 -0.000628836 -0.000629747 -0.000611167 -0.000612311 -0.000629747 -0.000630598 -0.000554721 -0.000557018 -0.000574453 -0.000576266 -0.000557018 -0.000559212 -0.000576266 -0.000577953 -0.000574453 -0.000576266 -0.000593617 -0.000595017 -0.000576266 -0.000577953 -0.000595017 -0.000596283 -0.000559212 -0.000561223 -0.000577953 -0.000579459 -0.000561223 -0.000563006 -0.000579459 -0.000580759 -0.000577953 -0.000579459 -0.000596283 -0.000597378 -0.000579459 -0.000580759 -0.000597378 -0.000598288 -0.000593617 -0.000595017 -0.000612311 -0.000613361 -0.000595017 -0.000596283 -0.000613361 -0.00061428 -0.000612311 -0.000613361 -0.000630598 -0.000631355 -0.000613361 -0.00061428 -0.000631355 -0.000631991 -0.000596283 -0.000597378 -0.00061428 -0.000615043 -0.000597378 -0.000598288 -0.000615043 -0.000615641 -0.00061428 -0.000615043 -0.000631991 -0.000632488 -0.000615043 -0.000615641 -0.000632488 -0.000632843 -0.000626979 -0.000627901 -0.000645874 -0.000646566 -0.000627901 -0.000628836 -0.000646566 -0.000647255 -0.000645874 -0.000646566 -0.000664328 -0.000664796 -0.000646566 -0.000647255 -0.000664796 -0.000665255 -0.000628836 -0.000629747 -0.000647255 -0.000647913 -0.000629747 -0.000630598 -0.000647913 -0.000648512 -0.000647255 -0.000647913 -0.000665255 -0.000665685 -0.000647913 -0.000648512 -0.000665685 -0.000666064 -0.000664328 -0.000664796 -0.000682365 -0.000682607 -0.000664796 -0.000665255 -0.000682607 -0.000682841 -0.000682365 -0.000682607 -0.0007 -0.0007 -0.000682607 -0.000682841 -0.0007 -0.0007 -0.000665255 -0.000665685 -0.000682841 -0.000683056 -0.000665685 -0.000666064 -0.000683056 -0.00068324 -0.000682841 -0.000683056 -0.0007 -0.0007 -0.000683056 -0.00068324 -0.0007 -0.0007 -0.000630598 -0.000631355 -0.000648512 -0.000649026 -0.000631355 -0.000631991 -0.000649026 -0.000649434 -0.000648512 -0.000649026 -0.000666064 -0.000666376 -0.000649026 -0.000649434 -0.000666376 -0.000666606 -0.000631991 -0.000632488 -0.000649434 -0.000649726 -0.000632488 -0.000632843 -0.000649726 -0.000649901 -0.000649434 -0.000649726 -0.000666606 -0.000666748 -0.000649726 -0.000649901 -0.000666748 -0.000666803 -0.000666064 -0.000666376 -0.00068324 -0.000683383 -0.000666376 -0.000666606 -0.000683383 -0.000683479 -0.00068324 -0.000683383 -0.0007 -0.0007 -0.000683383 -0.000683479 -0.0007 -0.0007 -0.000666606 -0.000666748 -0.000683479 -0.000683524 -0.000666748 -0.000666803 -0.000683524 -0.000683519 -0.000683479 -0.000683524 -0.0007 -0.0007 -0.000683524 -0.000683519 -0.0007 -0.0007 -0.000348433 -0.00040197 -0.000411713 -0.000424694 -0.00040197 -0.000433737 -0.000424694 -0.000442536 -0.000411713 -0.000424694 -0.00044095 -0.000450779 -0.000424694 -0.000442536 -0.000450779 -0.000460233 -0.000433737 -0.000455316 -0.000442536 -0.000459339 -0.000455316 -0.000471644 -0.000459339 -0.000473691 -0.000442536 -0.000459339 -0.000460233 -0.000471046 -0.000459339 -0.000473691 -0.000471046 -0.000481795 -0.00044095 -0.000450779 -0.000465636 -0.000472287 -0.000450779 -0.000460233 -0.000472287 -0.000478977 -0.000465636 -0.000472287 -0.000487251 -0.000492242 -0.000472287 -0.000478977 -0.000492242 -0.000497051 -0.000460233 -0.000471046 -0.000478977 -0.000486068 -0.000471046 -0.000481795 -0.000486068 -0.000493642 -0.000478977 -0.000486068 -0.000497051 -0.000502074 -0.000486068 -0.000493642 -0.000502074 -0.000507418 -0.000471644 -0.000484651 -0.000473691 -0.000485761 -0.000484651 -0.000495291 -0.000485761 -0.000495918 -0.000473691 -0.000485761 -0.000481795 -0.000491692 -0.000485761 -0.000495918 -0.000491692 -0.000500491 -0.000495291 -0.000504106 -0.000495918 -0.00050448 -0.000504106 -0.000511442 -0.00050448 -0.00051169 -0.000495918 -0.00050448 -0.000500491 -0.000508172 -0.00050448 -0.00051169 -0.000508172 -0.000514796 -0.000481795 -0.000491692 -0.000493642 -0.000501171 -0.000491692 -0.000500491 -0.000501171 -0.000508267 -0.000493642 -0.000501171 -0.000507418 -0.000512952 -0.000501171 -0.000508267 -0.000512952 -0.000518413 -0.000500491 -0.000508172 -0.000508267 -0.000514728 -0.000508172 -0.000514796 -0.000514728 -0.000520471 -0.000508267 -0.000514728 -0.000518413 -0.000523586 -0.000514728 -0.000520471 -0.000523586 -0.000528331 -0.000487251 -0.000492242 -0.000507342 -0.000511101 -0.000492242 -0.000497051 -0.000511101 -0.00051468 -0.000507342 -0.000511101 -0.00052646 -0.000529306 -0.000511101 -0.00051468 -0.000529306 -0.000531967 -0.000497051 -0.000502074 -0.00051468 -0.000518305 -0.000502074 -0.000507418 -0.000518305 -0.000522132 -0.00051468 -0.000518305 -0.000531967 -0.000534603 -0.000518305 -0.000522132 -0.000534603 -0.00053734 -0.00052646 -0.000529306 -0.000544948 -0.00054708 -0.000529306 -0.000531967 -0.00054708 -0.000549035 -0.000544948 -0.00054708 -0.000563006 -0.000564569 -0.00054708 -0.000549035 -0.000564569 -0.000565966 -0.000531967 -0.000534603 -0.000549035 -0.000550927 -0.000534603 -0.00053734 -0.000550927 -0.000552857 -0.000549035 -0.000550927 -0.000565966 -0.000567282 -0.000550927 -0.000552857 -0.000567282 -0.000568597 -0.000507418 -0.000512952 -0.000522132 -0.000526145 -0.000512952 -0.000518413 -0.000526145 -0.000530222 -0.000522132 -0.000526145 -0.00053734 -0.000540218 -0.000526145 -0.000530222 -0.000540218 -0.00054319 -0.000518413 -0.000523586 -0.000530222 -0.00053421 -0.000523586 -0.000528331 -0.00053421 -0.000537975 -0.000530222 -0.00053421 -0.00054319 -0.000546167 -0.00053421 -0.000537975 -0.000546167 -0.000549048 -0.00053734 -0.000540218 -0.000552857 -0.000554877 -0.000540218 -0.00054319 -0.000554877 -0.000556986 -0.000552857 -0.000554877 -0.000568597 -0.000569965 -0.000554877 -0.000556986 -0.000569965 -0.000571402 -0.00054319 -0.000546167 -0.000556986 -0.000559136 -0.000546167 -0.000549048 -0.000559136 -0.00056126 -0.000556986 -0.000559136 -0.000571402 -0.00057289 -0.000559136 -0.00056126 -0.00057289 -0.00057439 -0.000511442 -0.000517535 -0.00051169 -0.000517732 -0.000517535 -0.000522556 -0.000517732 -0.000522744 -0.00051169 -0.000517732 -0.000514796 -0.00052044 -0.000517732 -0.000522744 -0.00052044 -0.00052518 -0.000522556 -0.000526632 -0.000522744 -0.000526833 -0.000526632 -0.000529855 -0.000526833 -0.00053008 -0.000522744 -0.000526833 -0.00052518 -0.000529084 -0.000526833 -0.00053008 -0.000529084 -0.000532205 -0.000514796 -0.00052044 -0.000520471 -0.000525474 -0.00052044 -0.00052518 -0.000525474 -0.000529746 -0.000520471 -0.000525474 -0.000528331 -0.000532567 -0.000525474 -0.000529746 -0.000532567 -0.000536252 -0.00052518 -0.000529084 -0.000529746 -0.000533308 -0.000529084 -0.000532205 -0.000533308 -0.000536182 -0.000529746 -0.000533308 -0.000536252 -0.000539369 -0.000533308 -0.000536182 -0.000539369 -0.000541913 -0.000529855 -0.000532296 -0.00053008 -0.000532547 -0.000532296 -0.000534006 -0.000532547 -0.000534279 -0.00053008 -0.000532547 -0.000532205 -0.000534589 -0.000532547 -0.000534279 -0.000534589 -0.000536268 -0.000534006 -0.000535018 -0.000534279 -0.000535307 -0.000535018 -0.000535353 -0.000535307 -0.000535647 -0.000534279 -0.000535307 -0.000536268 -0.000537267 -0.000535307 -0.000535647 -0.000537267 -0.000537598 -0.000532205 -0.000534589 -0.000536182 -0.000538393 -0.000534589 -0.000536268 -0.000538393 -0.000539957 -0.000536182 -0.000538393 -0.000541913 -0.000543885 -0.000538393 -0.000539957 -0.000543885 -0.000545289 -0.000536268 -0.000537267 -0.000539957 -0.00054089 -0.000537267 -0.000537598 -0.00054089 -0.000541201 -0.000539957 -0.00054089 -0.000545289 -0.000546129 -0.00054089 -0.000541201 -0.000546129 -0.000546409 -0.000528331 -0.000532567 -0.000537975 -0.000541418 -0.000532567 -0.000536252 -0.000541418 -0.000544473 -0.000537975 -0.000541418 -0.000549048 -0.000551742 -0.000541418 -0.000544473 -0.000551742 -0.000554179 -0.000536252 -0.000539369 -0.000544473 -0.000547097 -0.000539369 -0.000541913 -0.000547097 -0.000549264 -0.000544473 -0.000547097 -0.000554179 -0.000556306 -0.000547097 -0.000549264 -0.000556306 -0.000558085 -0.000549048 -0.000551742 -0.00056126 -0.000563289 -0.000551742 -0.000554179 -0.000563289 -0.000565159 -0.00056126 -0.000563289 -0.00057439 -0.000575852 -0.000563289 -0.000565159 -0.000575852 -0.000577226 -0.000554179 -0.000556306 -0.000565159 -0.000566817 -0.000556306 -0.000558085 -0.000566817 -0.000568222 -0.000565159 -0.000566817 -0.000577226 -0.000578464 -0.000566817 -0.000568222 -0.000578464 -0.000579528 -0.000541913 -0.000543885 -0.000549264 -0.000550959 -0.000543885 -0.000545289 -0.000550959 -0.000552174 -0.000549264 -0.000550959 -0.000558085 -0.00055949 -0.000550959 -0.000552174 -0.00055949 -0.000560504 -0.000545289 -0.000546129 -0.000552174 -0.000552905 -0.000546129 -0.000546409 -0.000552905 -0.000553148 -0.000552174 -0.000552905 -0.000560504 -0.000561116 -0.000552905 -0.000553148 -0.000561116 -0.000561321 -0.000558085 -0.00055949 -0.000568222 -0.000569343 -0.00055949 -0.000560504 -0.000569343 -0.000570159 -0.000568222 -0.000569343 -0.000579528 -0.000580386 -0.000569343 -0.000570159 -0.000580386 -0.000581016 -0.000560504 -0.000561116 -0.000570159 -0.000570653 -0.000561116 -0.000561321 -0.000570653 -0.000570819 -0.000570159 -0.000570653 -0.000581016 -0.0005814 -0.000570653 -0.000570819 -0.0005814 -0.000581529 -0.000563006 -0.000564569 -0.000580759 -0.000581864 -0.000564569 -0.000565966 -0.000581864 -0.000582817 -0.000580759 -0.000581864 -0.000598288 -0.000599026 -0.000581864 -0.000582817 -0.000599026 -0.000599625 -0.000565966 -0.000567282 -0.000582817 -0.00