# vtk DataFile Version 3.0
#This file was generated by the deal.II library on 2018/6/20 at 8:35:56
ASCII
DATASET UNSTRUCTURED_GRID

POINTS 4096 double
0 0.5 0
0.03125 0.5 0
0 0.53125 0
0.03125 0.53125 0
0.03125 0.5 0
0.0625 0.5 0
0.03125 0.53125 0
0.0625 0.53125 0
0 0.53125 0
0.03125 0.53125 0
0 0.5625 0
0.03125 0.5625 0
0.03125 0.53125 0
0.0625 0.53125 0
0.03125 0.5625 0
0.0625 0.5625 0
0.0625 0.5 0
0.09375 0.5 0
0.0625 0.53125 0
0.09375 0.53125 0
0.09375 0.5 0
0.125 0.5 0
0.09375 0.53125 0
0.125 0.53125 0
0.0625 0.53125 0
0.09375 0.53125 0
0.0625 0.5625 0
0.09375 0.5625 0
0.09375 0.53125 0
0.125 0.53125 0
0.09375 0.5625 0
0.125 0.5625 0
0 0.5625 0
0.03125 0.5625 0
0 0.59375 0
0.03125 0.59375 0
0.03125 0.5625 0
0.0625 0.5625 0
0.03125 0.59375 0
0.0625 0.59375 0
0 0.59375 0
0.03125 0.59375 0
0 0.625 0
0.03125 0.625 0
0.03125 0.59375 0
0.0625 0.59375 0
0.03125 0.625 0
0.0625 0.625 0
0.0625 0.5625 0
0.09375 0.5625 0
0.0625 0.59375 0
0.09375 0.59375 0
0.09375 0.5625 0
0.125 0.5625 0
0.09375 0.59375 0
0.125 0.59375 0
0.0625 0.59375 0
0.09375 0.59375 0
0.0625 0.625 0
0.09375 0.625 0
0.09375 0.59375 0
0.125 0.59375 0
0.09375 0.625 0
0.125 0.625 0
0.125 0.5 0
0.15625 0.5 0
0.125 0.53125 0
0.15625 0.53125 0
0.15625 0.5 0
0.1875 0.5 0
0.15625 0.53125 0
0.1875 0.53125 0
0.125 0.53125 0
0.15625 0.53125 0
0.125 0.5625 0
0.15625 0.5625 0
0.15625 0.53125 0
0.1875 0.53125 0
0.15625 0.5625 0
0.1875 0.5625 0
0.1875 0.5 0
0.21875 0.5 0
0.1875 0.53125 0
0.21875 0.53125 0
0.21875 0.5 0
0.25 0.5 0
0.21875 0.53125 0
0.25 0.53125 0
0.1875 0.53125 0
0.21875 0.53125 0
0.1875 0.5625 0
0.21875 0.5625 0
0.21875 0.53125 0
0.25 0.53125 0
0.21875 0.5625 0
0.25 0.5625 0
0.125 0.5625 0
0.15625 0.5625 0
0.125 0.59375 0
0.15625 0.59375 0
0.15625 0.5625 0
0.1875 0.5625 0
0.15625 0.59375 0
0.1875 0.59375 0
0.125 0.59375 0
0.15625 0.59375 0
0.125 0.625 0
0.15625 0.625 0
0.15625 0.59375 0
0.1875 0.59375 0
0.15625 0.625 0
0.1875 0.625 0
0.1875 0.5625 0
0.21875 0.5625 0
0.1875 0.59375 0
0.21875 0.59375 0
0.21875 0.5625 0
0.25 0.5625 0
0.21875 0.59375 0
0.25 0.59375 0
0.1875 0.59375 0
0.21875 0.59375 0
0.1875 0.625 0
0.21875 0.625 0
0.21875 0.59375 0
0.25 0.59375 0
0.21875 0.625 0
0.25 0.625 0
0 0.625 0
0.03125 0.625 0
0 0.65625 0
0.03125 0.65625 0
0.03125 0.625 0
0.0625 0.625 0
0.03125 0.65625 0
0.0625 0.65625 0
0 0.65625 0
0.03125 0.65625 0
0 0.6875 0
0.03125 0.6875 0
0.03125 0.65625 0
0.0625 0.65625 0
0.03125 0.6875 0
0.0625 0.6875 0
0.0625 0.625 0
0.09375 0.625 0
0.0625 0.65625 0
0.09375 0.65625 0
0.09375 0.625 0
0.125 0.625 0
0.09375 0.65625 0
0.125 0.65625 0
0.0625 0.65625 0
0.09375 0.65625 0
0.0625 0.6875 0
0.09375 0.6875 0
0.09375 0.65625 0
0.125 0.65625 0
0.09375 0.6875 0
0.125 0.6875 0
0 0.6875 0
0.03125 0.6875 0
0 0.71875 0
0.03125 0.71875 0
0.03125 0.6875 0
0.0625 0.6875 0
0.03125 0.71875 0
0.0625 0.71875 0
0 0.71875 0
0.03125 0.71875 0
0 0.75 0
0.03125 0.75 0
0.03125 0.71875 0
0.0625 0.71875 0
0.03125 0.75 0
0.0625 0.75 0
0.0625 0.6875 0
0.09375 0.6875 0
0.0625 0.71875 0
0.09375 0.71875 0
0.09375 0.6875 0
0.125 0.6875 0
0.09375 0.71875 0
0.125 0.71875 0
0.0625 0.71875 0
0.09375 0.71875 0
0.0625 0.75 0
0.09375 0.75 0
0.09375 0.71875 0
0.125 0.71875 0
0.09375 0.75 0
0.125 0.75 0
0.125 0.625 0
0.15625 0.625 0
0.125 0.65625 0
0.15625 0.65625 0
0.15625 0.625 0
0.1875 0.625 0
0.15625 0.65625 0
0.1875 0.65625 0
0.125 0.65625 0
0.15625 0.65625 0
0.125 0.6875 0
0.15625 0.6875 0
0.15625 0.65625 0
0.1875 0.65625 0
0.15625 0.6875 0
0.1875 0.6875 0
0.1875 0.625 0
0.21875 0.625 0
0.1875 0.65625 0
0.21875 0.65625 0
0.21875 0.625 0
0.25 0.625 0
0.21875 0.65625 0
0.25 0.65625 0
0.1875 0.65625 0
0.21875 0.65625 0
0.1875 0.6875 0
0.21875 0.6875 0
0.21875 0.65625 0
0.25 0.65625 0
0.21875 0.6875 0
0.25 0.6875 0
0.125 0.6875 0
0.15625 0.6875 0
0.125 0.71875 0
0.15625 0.71875 0
0.15625 0.6875 0
0.1875 0.6875 0
0.15625 0.71875 0
0.1875 0.71875 0
0.125 0.71875 0
0.15625 0.71875 0
0.125 0.75 0
0.15625 0.75 0
0.15625 0.71875 0
0.1875 0.71875 0
0.15625 0.75 0
0.1875 0.75 0
0.1875 0.6875 0
0.21875 0.6875 0
0.1875 0.71875 0
0.21875 0.71875 0
0.21875 0.6875 0
0.25 0.6875 0
0.21875 0.71875 0
0.25 0.71875 0
0.1875 0.71875 0
0.21875 0.71875 0
0.1875 0.75 0
0.21875 0.75 0
0.21875 0.71875 0
0.25 0.71875 0
0.21875 0.75 0
0.25 0.75 0
0.25 0.5 0
0.28125 0.5 0
0.25 0.53125 0
0.28125 0.53125 0
0.28125 0.5 0
0.3125 0.5 0
0.28125 0.53125 0
0.3125 0.53125 0
0.25 0.53125 0
0.28125 0.53125 0
0.25 0.5625 0
0.28125 0.5625 0
0.28125 0.53125 0
0.3125 0.53125 0
0.28125 0.5625 0
0.3125 0.5625 0
0.3125 0.5 0
0.34375 0.5 0
0.3125 0.53125 0
0.34375 0.53125 0
0.34375 0.5 0
0.375 0.5 0
0.34375 0.53125 0
0.375 0.53125 0
0.3125 0.53125 0
0.34375 0.53125 0
0.3125 0.5625 0
0.34375 0.5625 0
0.34375 0.53125 0
0.375 0.53125 0
0.34375 0.5625 0
0.375 0.5625 0
0.25 0.5625 0
0.28125 0.5625 0
0.25 0.59375 0
0.28125 0.59375 0
0.28125 0.5625 0
0.3125 0.5625 0
0.28125 0.59375 0
0.3125 0.59375 0
0.25 0.59375 0
0.28125 0.59375 0
0.25 0.625 0
0.28125 0.625 0
0.28125 0.59375 0
0.3125 0.59375 0
0.28125 0.625 0
0.3125 0.625 0
0.3125 0.5625 0
0.34375 0.5625 0
0.3125 0.59375 0
0.34375 0.59375 0
0.34375 0.5625 0
0.375 0.5625 0
0.34375 0.59375 0
0.375 0.59375 0
0.3125 0.59375 0
0.34375 0.59375 0
0.3125 0.625 0
0.34375 0.625 0
0.34375 0.59375 0
0.375 0.59375 0
0.34375 0.625 0
0.375 0.625 0
0.375 0.5 0
0.40625 0.5 0
0.375 0.53125 0
0.40625 0.53125 0
0.40625 0.5 0
0.4375 0.5 0
0.40625 0.53125 0
0.4375 0.53125 0
0.375 0.53125 0
0.40625 0.53125 0
0.375 0.5625 0
0.40625 0.5625 0
0.40625 0.53125 0
0.4375 0.53125 0
0.40625 0.5625 0
0.4375 0.5625 0
0.4375 0.5 0
0.46875 0.5 0
0.4375 0.53125 0
0.46875 0.53125 0
0.46875 0.5 0
0.5 0.5 0
0.46875 0.53125 0
0.5 0.53125 0
0.4375 0.53125 0
0.46875 0.53125 0
0.4375 0.5625 0
0.46875 0.5625 0
0.46875 0.53125 0
0.5 0.53125 0
0.46875 0.5625 0
0.5 0.5625 0
0.375 0.5625 0
0.40625 0.5625 0
0.375 0.59375 0
0.40625 0.59375 0
0.40625 0.5625 0
0.4375 0.5625 0
0.40625 0.59375 0
0.4375 0.59375 0
0.375 0.59375 0
0.40625 0.59375 0
0.375 0.625 0
0.40625 0.625 0
0.40625 0.59375 0
0.4375 0.59375 0
0.40625 0.625 0
0.4375 0.625 0
0.4375 0.5625 0
0.46875 0.5625 0
0.4375 0.59375 0
0.46875 0.59375 0
0.46875 0.5625 0
0.5 0.5625 0
0.46875 0.59375 0
0.5 0.59375 0
0.4375 0.59375 0
0.46875 0.59375 0
0.4375 0.625 0
0.46875 0.625 0
0.46875 0.59375 0
0.5 0.59375 0
0.46875 0.625 0
0.5 0.625 0
0.25 0.625 0
0.28125 0.625 0
0.25 0.65625 0
0.28125 0.65625 0
0.28125 0.625 0
0.3125 0.625 0
0.28125 0.65625 0
0.3125 0.65625 0
0.25 0.65625 0
0.28125 0.65625 0
0.25 0.6875 0
0.28125 0.6875 0
0.28125 0.65625 0
0.3125 0.65625 0
0.28125 0.6875 0
0.3125 0.6875 0
0.3125 0.625 0
0.34375 0.625 0
0.3125 0.65625 0
0.34375 0.65625 0
0.34375 0.625 0
0.375 0.625 0
0.34375 0.65625 0
0.375 0.65625 0
0.3125 0.65625 0
0.34375 0.65625 0
0.3125 0.6875 0
0.34375 0.6875 0
0.34375 0.65625 0
0.375 0.65625 0
0.34375 0.6875 0
0.375 0.6875 0
0.25 0.6875 0
0.28125 0.6875 0
0.25 0.71875 0
0.28125 0.71875 0
0.28125 0.6875 0
0.3125 0.6875 0
0.28125 0.71875 0
0.3125 0.71875 0
0.25 0.71875 0
0.28125 0.71875 0
0.25 0.75 0
0.28125 0.75 0
0.28125 0.71875 0
0.3125 0.71875 0
0.28125 0.75 0
0.3125 0.75 0
0.3125 0.6875 0
0.34375 0.6875 0
0.3125 0.71875 0
0.34375 0.71875 0
0.34375 0.6875 0
0.375 0.6875 0
0.34375 0.71875 0
0.375 0.71875 0
0.3125 0.71875 0
0.34375 0.71875 0
0.3125 0.75 0
0.34375 0.75 0
0.34375 0.71875 0
0.375 0.71875 0
0.34375 0.75 0
0.375 0.75 0
0.375 0.625 0
0.40625 0.625 0
0.375 0.65625 0
0.40625 0.65625 0
0.40625 0.625 0
0.4375 0.625 0
0.40625 0.65625 0
0.4375 0.65625 0
0.375 0.65625 0
0.40625 0.65625 0
0.375 0.6875 0
0.40625 0.6875 0
0.40625 0.65625 0
0.4375 0.65625 0
0.40625 0.6875 0
0.4375 0.6875 0
0.4375 0.625 0
0.46875 0.625 0
0.4375 0.65625 0
0.46875 0.65625 0
0.46875 0.625 0
0.5 0.625 0
0.46875 0.65625 0
0.5 0.65625 0
0.4375 0.65625 0
0.46875 0.65625 0
0.4375 0.6875 0
0.46875 0.6875 0
0.46875 0.65625 0
0.5 0.65625 0
0.46875 0.6875 0
0.5 0.6875 0
0.375 0.6875 0
0.40625 0.6875 0
0.375 0.71875 0
0.40625 0.71875 0
0.40625 0.6875 0
0.4375 0.6875 0
0.40625 0.71875 0
0.4375 0.71875 0
0.375 0.71875 0
0.40625 0.71875 0
0.375 0.75 0
0.40625 0.75 0
0.40625 0.71875 0
0.4375 0.71875 0
0.40625 0.75 0
0.4375 0.75 0
0.4375 0.6875 0
0.46875 0.6875 0
0.4375 0.71875 0
0.46875 0.71875 0
0.46875 0.6875 0
0.5 0.6875 0
0.46875 0.71875 0
0.5 0.71875 0
0.4375 0.71875 0
0.46875 0.71875 0
0.4375 0.75 0
0.46875 0.75 0
0.46875 0.71875 0
0.5 0.71875 0
0.46875 0.75 0
0.5 0.75 0
0 0.75 0
0.03125 0.75 0
0 0.78125 0
0.03125 0.78125 0
0.03125 0.75 0
0.0625 0.75 0
0.03125 0.78125 0
0.0625 0.78125 0
0 0.78125 0
0.03125 0.78125 0
0 0.8125 0
0.03125 0.8125 0
0.03125 0.78125 0
0.0625 0.78125 0
0.03125 0.8125 0
0.0625 0.8125 0
0.0625 0.75 0
0.09375 0.75 0
0.0625 0.78125 0
0.09375 0.78125 0
0.09375 0.75 0
0.125 0.75 0
0.09375 0.78125 0
0.125 0.78125 0
0.0625 0.78125 0
0.09375 0.78125 0
0.0625 0.8125 0
0.09375 0.8125 0
0.09375 0.78125 0
0.125 0.78125 0
0.09375 0.8125 0
0.125 0.8125 0
0 0.8125 0
0.03125 0.8125 0
0 0.84375 0
0.03125 0.84375 0
0.03125 0.8125 0
0.0625 0.8125 0
0.03125 0.84375 0
0.0625 0.84375 0
0 0.84375 0
0.03125 0.84375 0
0 0.875 0
0.03125 0.875 0
0.03125 0.84375 0
0.0625 0.84375 0
0.03125 0.875 0
0.0625 0.875 0
0.0625 0.8125 0
0.09375 0.8125 0
0.0625 0.84375 0
0.09375 0.84375 0
0.09375 0.8125 0
0.125 0.8125 0
0.09375 0.84375 0
0.125 0.84375 0
0.0625 0.84375 0
0.09375 0.84375 0
0.0625 0.875 0
0.09375 0.875 0
0.09375 0.84375 0
0.125 0.84375 0
0.09375 0.875 0
0.125 0.875 0
0.125 0.75 0
0.15625 0.75 0
0.125 0.78125 0
0.15625 0.78125 0
0.15625 0.75 0
0.1875 0.75 0
0.15625 0.78125 0
0.1875 0.78125 0
0.125 0.78125 0
0.15625 0.78125 0
0.125 0.8125 0
0.15625 0.8125 0
0.15625 0.78125 0
0.1875 0.78125 0
0.15625 0.8125 0
0.1875 0.8125 0
0.1875 0.75 0
0.21875 0.75 0
0.1875 0.78125 0
0.21875 0.78125 0
0.21875 0.75 0
0.25 0.75 0
0.21875 0.78125 0
0.25 0.78125 0
0.1875 0.78125 0
0.21875 0.78125 0
0.1875 0.8125 0
0.21875 0.8125 0
0.21875 0.78125 0
0.25 0.78125 0
0.21875 0.8125 0
0.25 0.8125 0
0.125 0.8125 0
0.15625 0.8125 0
0.125 0.84375 0
0.15625 0.84375 0
0.15625 0.8125 0
[...]
POINT_DATA 4096
SCALARS State_InstatPDEProblemContainer_0 double 1
LOOKUP_TABLE default
-0.00010004 -0.000100039 -0.00010704 -0.000107048 -0.000100039 -0.000100037 -0.000107048 -0.000107069 -0.00010704 -0.000107048 -0.000114014 -0.000114029 -0.000107048 -0.000107069 -0.000114029 -0.000114072 -0.000100037 -0.000100034 -0.000107069 -0.000107106 -0.000100034 -0.000100029 -0.000107106 -0.000107159 -0.000107069 -0.000107106 -0.000114072 -0.000114147 -0.000107106 -0.000107159 -0.000114147 -0.000114255 -0.000114014 -0.000114029 -0.000120934 -0.000120954 -0.000114029 -0.000114072 -0.000120954 -0.000121017 -0.000120934 -0.000120954 -0.000127773 -0.000127799 -0.000120954 -0.000121017 -0.000127799 -0.000127877 -0.000114072 -0.000114147 -0.000121017 -0.000121124 -0.000114147 -0.000114255 -0.000121124 -0.000121279 -0.000121017 -0.000121124 -0.000127877 -0.000128009 -0.000121124 -0.000121279 -0.000128009 -0.000128201 -0.000100029 -0.000100022 -0.000107159 -0.000107232 -0.000100022 -0.000100014 -0.000107232 -0.000107328 -0.000107159 -0.000107232 -0.000114255 -0.000114401 -0.000107232 -0.000107328 -0.000114401 -0.000114592 -0.000100014 -0.000100004 -0.000107328 -0.000107451 -0.000100004 -9.99914e-05 -0.000107451 -0.00010761 -0.000107328 -0.000107451 -0.000114592 -0.000114837 -0.000107451 -0.00010761 -0.000114837 -0.00011515 -0.000114255 -0.000114401 -0.000121279 -0.000121488 -0.000114401 -0.000114592 -0.000121488 -0.000121758 -0.000121279 -0.000121488 -0.000128201 -0.000128457 -0.000121488 -0.000121758 -0.000128457 -0.000128785 -0.000114592 -0.000114837 -0.000121758 -0.000122102 -0.000114837 -0.00011515 -0.000122102 -0.000122534 -0.000121758 -0.000122102 -0.000128785 -0.000129198 -0.000122102 -0.000122534 -0.000129198 -0.000129709 -0.000127773 -0.000127799 -0.00013451 -0.00013454 -0.000127799 -0.000127877 -0.00013454 -0.000134629 -0.00013451 -0.00013454 -0.000141129 -0.00014116 -0.00013454 -0.000134629 -0.00014116 -0.000141256 -0.000127877 -0.000128009 -0.000134629 -0.000134779 -0.000128009 -0.000128201 -0.000134779 -0.000134995 -0.000134629 -0.000134779 -0.000141256 -0.000141416 -0.000134779 -0.000134995 -0.000141416 -0.000141644 -0.000141129 -0.00014116 -0.000147616 -0.000147648 -0.00014116 -0.000141256 -0.000147648 -0.000147745 -0.000147616 -0.000147648 -0.000153964 -0.000153995 -0.000147648 -0.000147745 -0.000153995 -0.00015409 -0.000141256 -0.000141416 -0.000147745 -0.000147908 -0.000141416 -0.000141644 -0.000147908 -0.000148138 -0.000147745 -0.000147908 -0.00015409 -0.000154248 -0.000147908 -0.000148138 -0.000154248 -0.000154471 -0.000128201 -0.000128457 -0.000134995 -0.000135281 -0.000128457 -0.000128785 -0.000135281 -0.000135646 -0.000134995 -0.000135281 -0.000141644 -0.000141945 -0.000135281 -0.000135646 -0.000141945 -0.000142323 -0.000128785 -0.000129198 -0.000135646 -0.000136097 -0.000129198 -0.000129709 -0.000136097 -0.000136646 -0.000135646 -0.000136097 -0.000142323 -0.000142785 -0.000136097 -0.000136646 -0.000142785 -0.000143336 -0.000141644 -0.000141945 -0.000148138 -0.000148439 -0.000141945 -0.000142323 -0.000148439 -0.000148812 -0.000148138 -0.000148439 -0.000154471 -0.00015476 -0.000148439 -0.000148812 -0.00015476 -0.000155114 -0.000142323 -0.000142785 -0.000148812 -0.000149261 -0.000142785 -0.000143336 -0.000149261 -0.000149789 -0.000148812 -0.000149261 -0.000155114 -0.000155534 -0.000149261 -0.000149789 -0.000155534 -0.000156019 -9.99914e-05 -9.9976e-05 -0.00010761 -0.000107817 -9.9976e-05 -9.99572e-05 -0.000107817 -0.000108088 -0.00010761 -0.000107817 -0.00011515 -0.00011555 -0.000107817 -0.000108088 -0.00011555 -0.000116067 -9.99572e-05 -9.99338e-05 -0.000108088 -0.000108453 -9.99338e-05 -9.99042e-05 -0.000108453 -0.000108963 -0.000108088 -0.000108453 -0.000116067 -0.000116746 -0.000108453 -0.000108963 -0.000116746 -0.000117657 -0.00011515 -0.00011555 -0.000122534 -0.000123079 -0.00011555 -0.000116067 -0.000123079 -0.000123765 -0.000122534 -0.000123079 -0.000129709 -0.000130339 -0.000123079 -0.000123765 -0.000130339 -0.000131111 -0.000116067 -0.000116746 -0.000123765 -0.000124635 -0.000116746 -0.000117657 -0.000124635 -0.000125746 -0.000123765 -0.000124635 -0.000131111 -0.000132052 -0.000124635 -0.000125746 -0.000132052 -0.00013319 -9.99042e-05 -9.98646e-05 -0.000108963 -0.000109712 -9.98646e-05 -9.98075e-05 -0.000109712 -0.000110903 -0.000108963 -0.000109712 -0.000117657 -0.000118916 -0.000109712 -0.000110903 -0.000118916 -0.000120692 -9.98075e-05 -9.97006e-05 -0.000110903 -0.000113004 -9.97006e-05 -9.95502e-05 -0.000113004 -0.000117597 -0.000110903 -0.000113004 -0.000120692 -0.000123247 -0.000113004 -0.000117597 -0.000123247 -0.000125943 -0.000117657 -0.000118916 -0.000125746 -0.000127162 -0.000118916 -0.000120692 -0.000127162 -0.000128937 -0.000125746 -0.000127162 -0.00013319 -0.000134536 -0.000127162 -0.000128937 -0.000134536 -0.000136052 -0.000120692 -0.000123247 -0.000128937 -0.000130939 -0.000123247 -0.000125943 -0.000130939 -0.000132994 -0.000128937 -0.000130939 -0.000136052 -0.000137642 -0.000130939 -0.000132994 -0.000137642 -0.00013917 -0.000129709 -0.000130339 -0.000136646 -0.000137307 -0.000130339 -0.000131111 -0.000137307 -0.000138092 -0.000136646 -0.000137307 -0.000143336 -0.000143985 -0.000137307 -0.000138092 -0.000143985 -0.000144733 -0.000131111 -0.000132052 -0.000138092 -0.000139014 -0.000132052 -0.00013319 -0.000139014 -0.000140073 -0.000138092 -0.000139014 -0.000144733 -0.00014558 -0.000139014 -0.000140073 -0.00014558 -0.000146514 -0.000143336 -0.000143985 -0.000149789 -0.000150394 -0.000143985 -0.000144733 -0.000150394 -0.000151075 -0.000149789 -0.000150394 -0.000156019 -0.000156564 -0.000150394 -0.000151075 -0.000156564 -0.000157162 -0.000144733 -0.00014558 -0.000151075 -0.000151822 -0.00014558 -0.000146514 -0.000151822 -0.000152616 -0.000151075 -0.000151822 -0.000157162 -0.0001578 -0.000151822 -0.000152616 -0.0001578 -0.000158459 -0.00013319 -0.000134536 -0.000140073 -0.000141252 -0.000134536 -0.000136052 -0.000141252 -0.000142501 -0.000140073 -0.000141252 -0.000146514 -0.000147506 -0.000141252 -0.000142501 -0.000147506 -0.000148513 -0.000136052 -0.000137642 -0.000142501 -0.000143743 -0.000137642 -0.00013917 -0.000143743 -0.000144913 -0.000142501 -0.000143743 -0.000148513 -0.000149483 -0.000143743 -0.000144913 -0.000149483 -0.000150378 -0.000146514 -0.000147506 -0.000152616 -0.000153431 -0.000147506 -0.000148513 -0.000153431 -0.000154232 -0.000152616 -0.000153431 -0.000158459 -0.000159116 -0.000153431 -0.000154232 -0.000159116 -0.000159743 -0.000148513 -0.000149483 -0.000154232 -0.000154983 -0.000149483 -0.000150378 -0.000154983 -0.000155664 -0.000154232 -0.000154983 -0.000159743 -0.000160317 -0.000154983 -0.000155664 -0.000160317 -0.000160827 -0.000153964 -0.000153995 -0.000160168 -0.000160198 -0.000153995 -0.00015409 -0.000160198 -0.000160287 -0.000160168 -0.000160198 -0.00016623 -0.000166257 -0.000160198 -0.000160287 -0.000166257 -0.000166339 -0.00015409 -0.000154248 -0.000160287 -0.000160436 -0.000154248 -0.000154471 -0.000160436 -0.000160645 -0.000160287 -0.000160436 -0.000166339 -0.000166474 -0.000160436 -0.000160645 -0.000166474 -0.000166663 -0.00016623 -0.000166257 -0.000172152 -0.000172176 -0.000166257 -0.000166339 -0.000172176 -0.000172248 -0.000172152 -0.000172176 -0.000177942 -0.000177962 -0.000172176 -0.000172248 -0.000177962 -0.000178023 -0.000166339 -0.000166474 -0.000172248 -0.000172367 -0.000166474 -0.000166663 -0.000172367 -0.000172532 -0.000172248 -0.000172367 -0.000178023 -0.000178123 -0.000172367 -0.000172532 -0.000178123 -0.00017826 -0.000154471 -0.00015476 -0.000160645 -0.000160912 -0.00015476 -0.000155114 -0.000160912 -0.000161237 -0.000160645 -0.000160912 -0.000166663 -0.000166902 -0.000160912 -0.000161237 -0.000166902 -0.000167191 -0.000155114 -0.000155534 -0.000161237 -0.000161617 -0.000155534 -0.000156019 -0.000161617 -0.000162048 -0.000161237 -0.000161617 -0.000167191 -0.000167524 -0.000161617 -0.000162048 -0.000167524 -0.000167896 -0.000166663 -0.000166902 -0.000172532 -0.000172739 -0.000166902 -0.000167191 -0.000172739 -0.000172987 -0.000172532 -0.000172739 -0.00017826 -0.000178433 -0.000172739 -0.000172987 -0.000178433 -0.000178637 -0.000167191 -0.000167524 -0.000172987 -0.00017327 -0.000167524 -0.000167896 -0.00017327 -0.000173581 -0.000172987 -0.00017327 -0.000178637 -0.000178868 -0.00017327 -0.000173581 -0.000178868 -0.000179119 -0.000177942 -0.000177962 -0.000183609 -0.000183625 -0.000177962 -0.000178023 -0.000183625 -0.000183673 -0.000183609 -0.000183625 -0.000189164 -0.000189175 -0.000183625 -0.000183673 -0.000189175 -0.000189209 -0.000178023 -0.000178123 -0.000183673 -0.000183752 -0.000178123 -0.00017826 -0.000183752 -0.00018386 -0.000183673 -0.000183752 -0.000189209 -0.000189265 -0.000183752 -0.00018386 -0.000189265 -0.000189341 -0.000189164 -0.000189175 -0.000194622 -0.000194628 -0.000189175 -0.000189209 -0.000194628 -0.000194646 -0.000194622 -0.000194628 -0.0002 -0.0002 -0.000194628 -0.000194646 -0.0002 -0.0002 -0.000189209 -0.000189265 -0.000194646 -0.000194675 -0.000189265 -0.000189341 -0.000194675 -0.000194716 -0.000194646 -0.000194675 -0.0002 -0.0002 -0.000194675 -0.000194716 -0.0002 -0.0002 -0.00017826 -0.000178433 -0.00018386 -0.000183995 -0.000178433 -0.000178637 -0.000183995 -0.000184153 -0.00018386 -0.000183995 -0.000189341 -0.000189435 -0.000183995 -0.000184153 -0.000189435 -0.000189545 -0.000178637 -0.000178868 -0.000184153 -0.00018433 -0.000178868 -0.000179119 -0.00018433 -0.000184521 -0.000184153 -0.00018433 -0.000189545 -0.000189668 -0.00018433 -0.000184521 -0.000189668 -0.000189799 -0.000189341 -0.000189435 -0.000194716 -0.000194766 -0.000189435 -0.000189545 -0.000194766 -0.000194824 -0.000194716 -0.000194766 -0.0002 -0.0002 -0.000194766 -0.000194824 -0.0002 -0.0002 -0.000189545 -0.000189668 -0.000194824 -0.000194889 -0.000189668 -0.000189799 -0.000194889 -0.000194957 -0.000194824 -0.000194889 -0.0002 -0.0002 -0.000194889 -0.000194957 -0.0002 -0.0002 -0.000156019 -0.000156564 -0.000162048 -0.000162524 -0.000156564 -0.000157162 -0.000162524 -0.000163034 -0.000162048 -0.000162524 -0.000167896 -0.0001683 -0.000162524 -0.000163034 -0.0001683 -0.000168724 -0.000157162 -0.0001578 -0.000163034 -0.000163566 -0.0001578 -0.000158459 -0.000163566 -0.0001641 -0.000163034 -0.000163566 -0.000168724 -0.000169155 -0.000163566 -0.0001641 -0.000169155 -0.000169579 -0.000167896 -0.0001683 -0.000173581 -0.000173913 -0.0001683 -0.000168724 -0.000173913 -0.000174256 -0.000173581 -0.000173913 -0.000179119 -0.000179382 -0.000173913 -0.000174256 -0.000179382 -0.000179649 -0.000168724 -0.000169155 -0.000174256 -0.000174597 -0.000169155 -0.000169579 -0.000174597 -0.000174925 -0.000174256 -0.000174597 -0.000179649 -0.00017991 -0.000174597 -0.000174925 -0.00017991 -0.000180154 -0.000158459 -0.000159116 -0.0001641 -0.000164619 -0.000159116 -0.000159743 -0.000164619 -0.000165101 -0.0001641 -0.000164619 -0.000169579 -0.00016998 -0.000164619 -0.000165101 -0.00016998 -0.000170342 -0.000159743 -0.000160317 -0.000165101 -0.000165532 -0.000160317 -0.000160827 -0.000165532 -0.000165904 -0.000165101 -0.000165532 -0.000170342 -0.000170655 -0.000165532 -0.000165904 -0.000170655 -0.000170916 -0.000169579 -0.00016998 -0.000174925 -0.000175225 -0.00016998 -0.000170342 -0.000175225 -0.000175488 -0.000174925 -0.000175225 -0.000180154 -0.000180371 -0.000175225 -0.000175488 -0.000180371 -0.000180553 -0.000170342 -0.000170655 -0.000175488 -0.000175707 -0.000170655 -0.000170916 -0.000175707 -0.000175878 -0.000175488 -0.000175707 -0.000180553 -0.000180695 -0.000175707 -0.000175878 -0.000180695 -0.000180797 -0.000179119 -0.000179382 -0.000184521 -0.000184719 -0.000179382 -0.000179649 -0.000184719 -0.000184917 -0.000184521 -0.000184719 -0.000189799 -0.000189932 -0.000184719 -0.000184917 -0.000189932 -0.000190064 -0.000179649 -0.00017991 -0.000184917 -0.000185105 -0.00017991 -0.000180154 -0.000185105 -0.000185276 -0.000184917 -0.000185105 -0.000190064 -0.000190187 -0.000185105 -0.000185276 -0.000190187 -0.000190295 -0.000189799 -0.000189932 -0.000194957 -0.000195026 -0.000189932 -0.000190064 -0.000195026 -0.000195093 -0.000194957 -0.000195026 -0.0002 -0.0002 -0.000195026 -0.000195093 -0.0002 -0.0002 -0.000190064 -0.000190187 -0.000195093 -0.000195154 -0.000190187 -0.000190295 -0.000195154 -0.000195207 -0.000195093 -0.000195154 -0.0002 -0.0002 -0.000195154 -0.000195207 -0.0002 -0.0002 -0.000180154 -0.000180371 -0.000185276 -0.000185423 -0.000180371 -0.000180553 -0.000185423 -0.000185541 -0.000185276 -0.000185423 -0.000190295 -0.000190385 -0.000185423 -0.000185541 -0.000190385 -0.000190451 -0.000180553 -0.000180695 -0.000185541 -0.000185624 -0.000180695 -0.000180797 -0.000185624 -0.000185674 -0.000185541 -0.000185624 -0.000190451 -0.000190492 -0.000185624 -0.000185674 -0.000190492 -0.000190507 -0.000190295 -0.000190385 -0.000195207 -0.000195248 -0.000190385 -0.000190451 -0.000195248 -0.000195276 -0.000195207 -0.000195248 -0.0002 -0.0002 -0.000195248 -0.000195276 -0.0002 -0.0002 -0.000190451 -0.000190492 -0.000195276 -0.000195289 -0.000190492 -0.000190507 -0.000195289 -0.000195287 -0.000195276 -0.000195289 -0.0002 -0.0002 -0.000195289 -0.000195287 -0.0002 -0.0002 -9.95502e-05 -0.00011481 -0.000117597 -0.000121298 -0.00011481 -0.000123871 -0.000121298 -0.000126387 -0.000117597 -0.000121298 -0.000125943 -0.000128747 -0.000121298 -0.000126387 -0.000128747 -0.000131444 -0.000123871 -0.000130032 -0.000126387 -0.000131183 -0.000130032 -0.000134696 -0.000131183 -0.000135282 -0.000126387 -0.000131183 -0.000131444 -0.00013453 -0.000131183 -0.000135282 -0.00013453 -0.0001376 -0.000125943 -0.000128747 -0.000132994 -0.000134892 -0.000128747 -0.000131444 -0.000134892 -0.000136801 -0.000132994 -0.000134892 -0.00013917 -0.000140595 -0.000134892 -0.000136801 -0.000140595 -0.000141968 -0.000131444 -0.00013453 -0.000136801 -0.000138825 -0.00013453 -0.0001376 -0.000138825 -0.000140988 -0.000136801 -0.000138825 -0.000141968 -0.000143402 -0.000138825 -0.000140988 -0.000143402 -0.000144928 -0.000134696 -0.000138413 -0.000135282 -0.00013873 -0.000138413 -0.000141455 -0.00013873 -0.000141634 -0.000135282 -0.00013873 -0.0001376 -0.000140427 -0.00013873 -0.000141634 -0.000140427 -0.000142942 -0.000141455 -0.000143975 -0.000141634 -0.000144082 -0.000143975 -0.000146073 -0.000144082 -0.000146144 -0.000141634 -0.000144082 -0.000142942 -0.000145138 -0.000144082 -0.000146144 -0.000145138 -0.000147033 -0.0001376 -0.000140427 -0.000140988 -0.000143139 -0.000140427 -0.000142942 -0.000143139 -0.000145167 -0.000140988 -0.000143139 -0.000144928 -0.000146509 -0.000143139 -0.000145167 -0.000146509 -0.000148069 -0.000142942 -0.000145138 -0.000145167 -0.000147014 -0.000145138 -0.000147033 -0.000147014 -0.000148656 -0.000145167 -0.000147014 -0.000148069 -0.000149548 -0.000147014 -0.000148656 -0.000149548 -0.000150905 -0.00013917 -0.000140595 -0.000144913 -0.000145986 -0.000140595 -0.000141968 -0.000145986 -0.000147008 -0.000144913 -0.000145986 -0.000150378 -0.000151191 -0.000145986 -0.000147008 -0.000151191 -0.000151951 -0.000141968 -0.000143402 -0.000147008 -0.000148043 -0.000143402 -0.000144928 -0.000148043 -0.000149136 -0.000147008 -0.000148043 -0.000151951 -0.000152704 -0.000148043 -0.000149136 -0.000152704 -0.000153486 -0.000150378 -0.000151191 -0.000155664 -0.000156273 -0.000151191 -0.000151951 -0.000156273 -0.000156832 -0.000155664 -0.000156273 -0.000160827 -0.000161274 -0.000156273 -0.000156832 -0.000161274 -0.000161673 -0.000151951 -0.000152704 -0.000156832 -0.000157372 -0.000152704 -0.000153486 -0.000157372 -0.000157923 -0.000156832 -0.000157372 -0.000161673 -0.000162049 -0.000157372 -0.000157923 -0.000162049 -0.000162425 -0.000144928 -0.000146509 -0.000149136 -0.000150283 -0.000146509 -0.000148069 -0.000150283 -0.000151448 -0.000149136 -0.000150283 -0.000153486 -0.000154308 -0.000150283 -0.000151448 -0.000154308 -0.000155157 -0.000148069 -0.000149548 -0.000151448 -0.000152588 -0.000149548 -0.000150905 -0.000152588 -0.000153664 -0.000151448 -0.000152588 -0.000155157 -0.000156008 -0.000152588 -0.000153664 -0.000156008 -0.000156831 -0.000153486 -0.000154308 -0.000157923 -0.000158501 -0.000154308 -0.000155157 -0.000158501 -0.000159103 -0.000157923 -0.000158501 -0.000162425 -0.000162816 -0.000158501 -0.000159103 -0.000162816 -0.000163226 -0.000155157 -0.000156008 -0.000159103 -0.000159717 -0.000156008 -0.000156831 -0.000159717 -0.000160325 -0.000159103 -0.000159717 -0.000163226 -0.000163651 -0.000159717 -0.000160325 -0.000163651 -0.00016408 -0.000146073 -0.000147817 -0.000146144 -0.000147872 -0.000147817 -0.000149253 -0.000147872 -0.000149306 -0.000146144 -0.000147872 -0.000147033 -0.000148647 -0.000147872 -0.000149306 -0.000148647 -0.000150003 -0.000149253 -0.000150419 -0.000149306 -0.000150476 -0.000150419 -0.000151342 -0.000150476 -0.000151405 -0.000149306 -0.000150476 -0.000150003 -0.00015112 -0.000150476 -0.000151405 -0.00015112 -0.000152013 -0.000147033 -0.000148647 -0.000148656 -0.000150087 -0.000148647 -0.000150003 -0.000150087 -0.000151309 -0.000148656 -0.000150087 -0.000150905 -0.000152116 -0.000150087 -0.000151309 -0.000152116 -0.00015317 -0.000150003 -0.00015112 -0.000151309 -0.000152328 -0.00015112 -0.000152013 -0.000152328 -0.000153151 -0.000151309 -0.000152328 -0.00015317 -0.000154062 -0.000152328 -0.000153151 -0.000154062 -0.00015479 -0.000151342 -0.00015204 -0.000151405 -0.000152111 -0.00015204 -0.000152529 -0.000152111 -0.000152607 -0.000151405 -0.000152111 -0.000152013 -0.000152695 -0.000152111 -0.000152607 -0.000152695 -0.000153176 -0.000152529 -0.000152819 -0.000152607 -0.000152901 -0.000152819 -0.000152915 -0.000152901 -0.000152999 -0.000152607 -0.000152901 -0.000153176 -0.000153461 -0.000152901 -0.000152999 -0.000153461 -0.000153556 -0.000152013 -0.000152695 -0.000153151 -0.000153783 -0.000152695 -0.000153176 -0.000153783 -0.000154231 -0.000153151 -0.000153783 -0.00015479 -0.000155354 -0.000153783 -0.000154231 -0.000155354 -0.000155756 -0.000153176 -0.000153461 -0.000154231 -0.000154498 -0.000153461 -0.000153556 -0.000154498 -0.000154586 -0.000154231 -0.000154498 -0.000155756 -0.000155996 -0.000154498 -0.000154586 -0.000155996 -0.000156076 -0.000150905 -0.000152116 -0.000153664 -0.000154648 -0.000152116 -0.00015317 -0.000154648 -0.000155522 -0.000153664 -0.000154648 -0.000156831 -0.000157602 -0.000154648 -0.000155522 -0.000157602 -0.000158299 -0.00015317 -0.000154062 -0.000155522 -0.000156273 -0.000154062 -0.00015479 -0.000156273 -0.000156893 -0.000155522 -0.000156273 -0.000158299 -0.000158907 -0.000156273 -0.000156893 -0.000158907 -0.000159416 -0.000156831 -0.000157602 -0.000160325 -0.000160905 -0.000157602 -0.000158299 -0.000160905 -0.000161439 -0.000160325 -0.000160905 -0.00016408 -0.000164498 -0.000160905 -0.000161439 -0.000164498 -0.000164891 -0.000158299 -0.000158907 -0.000161439 -0.000161914 -0.000158907 -0.000159416 -0.000161914 -0.000162315 -0.000161439 -0.000161914 -0.000164891 -0.000165245 -0.000161914 -0.000162315 -0.000165245 -0.000165549 -0.00015479 -0.000155354 -0.000156893 -0.000157378 -0.000155354 -0.000155756 -0.000157378 -0.000157725 -0.000156893 -0.000157378 -0.000159416 -0.000159818 -0.000157378 -0.000157725 -0.000159818 -0.000160108 -0.000155756 -0.000155996 -0.000157725 -0.000157934 -0.000155996 -0.000156076 -0.000157934 -0.000158004 -0.000157725 -0.000157934 -0.000160108 -0.000160283 -0.000157934 -0.000158004 -0.000160283 -0.000160342 -0.000159416 -0.000159818 -0.000162315 -0.000162636 -0.000159818 -0.000160108 -0.000162636 -0.000162869 -0.000162315 -0.000162636 -0.000165549 -0.000165795 -0.000162636 -0.000162869 -0.000165795 -0.000165975 -0.000160108 -0.000160283 -0.000162869 -0.000163011 -0.000160283 -0.000160342 -0.000163011 -0.000163058 -0.000162869 -0.000163011 -0.000165975 -0.000166084 -0.000163011 -0.000163058 -0.000166084 -0.000166121 -0.000160827 -0.000161274 -0.000165904 -0.00016622 -0.000161274 -0.000161673 -0.00016622 -0.000166492 -0.000165904 -0.00016622 -0.000170916 -0.000171127 -0.00016622 -0.000166492 -0.000171127 -0.000171298 -0.000161673 -0.000162049 -0.00