# vtk DataFile Version 3.0
#This file was generated by the deal.II library on 2018/6/20 at 8:35:57
ASCII
DATASET UNSTRUCTURED_GRID

POINTS 4096 double
0 0.5 0
0.03125 0.5 0
0 0.53125 0
0.03125 0.53125 0
0.03125 0.5 0
0.0625 0.5 0
0.03125 0.53125 0
0.0625 0.53125 0
0 0.53125 0
0.03125 0.53125 0
0 0.5625 0
0.03125 0.5625 0
0.03125 0.53125 0
0.0625 0.53125 0
0.03125 0.5625 0
0.0625 0.5625 0
0.0625 0.5 0
0.09375 0.5 0
0.0625 0.53125 0
0.09375 0.53125 0
0.09375 0.5 0
0.125 0.5 0
0.09375 0.53125 0
0.125 0.53125 0
0.0625 0.53125 0
0.09375 0.53125 0
0.0625 0.5625 0
0.09375 0.5625 0
0.09375 0.53125 0
0.125 0.53125 0
0.09375 0.5625 0
0.125 0.5625 0
0 0.5625 0
0.03125 0.5625 0
0 0.59375 0
0.03125 0.59375 0
0.03125 0.5625 0
0.0625 0.5625 0
0.03125 0.59375 0
0.0625 0.59375 0
0 0.59375 0
0.03125 0.59375 0
0 0.625 0
0.03125 0.625 0
0.03125 0.59375 0
0.0625 0.59375 0
0.03125 0.625 0
0.0625 0.625 0
0.0625 0.5625 0
0.09375 0.5625 0
0.0625 0.59375 0
0.09375 0.59375 0
0.09375 0.5625 0
0.125 0.5625 0
0.09375 0.59375 0
0.125 0.59375 0
0.0625 0.59375 0
0.09375 0.59375 0
0.0625 0.625 0
0.09375 0.625 0
0.09375 0.59375 0
0.125 0.59375 0
0.09375 0.625 0
0.125 0.625 0
0.125 0.5 0
0.15625 0.5 0
0.125 0.53125 0
0.15625 0.53125 0
0.15625 0.5 0
0.1875 0.5 0
0.15625 0.53125 0
0.1875 0.53125 0
0.125 0.53125 0
0.15625 0.53125 0
0.125 0.5625 0
0.15625 0.5625 0
0.15625 0.53125 0
0.1875 0.53125 0
0.15625 0.5625 0
0.1875 0.5625 0
0.1875 0.5 0
0.21875 0.5 0
0.1875 0.53125 0
0.21875 0.53125 0
0.21875 0.5 0
0.25 0.5 0
0.21875 0.53125 0
0.25 0.53125 0
0.1875 0.53125 0
0.21875 0.53125 0
0.1875 0.5625 0
0.21875 0.5625 0
0.21875 0.53125 0
0.25 0.53125 0
0.21875 0.5625 0
0.25 0.5625 0
0.125 0.5625 0
0.15625 0.5625 0
0.125 0.59375 0
0.15625 0.59375 0
0.15625 0.5625 0
0.1875 0.5625 0
0.15625 0.59375 0
0.1875 0.59375 0
0.125 0.59375 0
0.15625 0.59375 0
0.125 0.625 0
0.15625 0.625 0
0.15625 0.59375 0
0.1875 0.59375 0
0.15625 0.625 0
0.1875 0.625 0
0.1875 0.5625 0
0.21875 0.5625 0
0.1875 0.59375 0
0.21875 0.59375 0
0.21875 0.5625 0
0.25 0.5625 0
0.21875 0.59375 0
0.25 0.59375 0
0.1875 0.59375 0
0.21875 0.59375 0
0.1875 0.625 0
0.21875 0.625 0
0.21875 0.59375 0
0.25 0.59375 0
0.21875 0.625 0
0.25 0.625 0
0 0.625 0
0.03125 0.625 0
0 0.65625 0
0.03125 0.65625 0
0.03125 0.625 0
0.0625 0.625 0
0.03125 0.65625 0
0.0625 0.65625 0
0 0.65625 0
0.03125 0.65625 0
0 0.6875 0
0.03125 0.6875 0
0.03125 0.65625 0
0.0625 0.65625 0
0.03125 0.6875 0
0.0625 0.6875 0
0.0625 0.625 0
0.09375 0.625 0
0.0625 0.65625 0
0.09375 0.65625 0
0.09375 0.625 0
0.125 0.625 0
0.09375 0.65625 0
0.125 0.65625 0
0.0625 0.65625 0
0.09375 0.65625 0
0.0625 0.6875 0
0.09375 0.6875 0
0.09375 0.65625 0
0.125 0.65625 0
0.09375 0.6875 0
0.125 0.6875 0
0 0.6875 0
0.03125 0.6875 0
0 0.71875 0
0.03125 0.71875 0
0.03125 0.6875 0
0.0625 0.6875 0
0.03125 0.71875 0
0.0625 0.71875 0
0 0.71875 0
0.03125 0.71875 0
0 0.75 0
0.03125 0.75 0
0.03125 0.71875 0
0.0625 0.71875 0
0.03125 0.75 0
0.0625 0.75 0
0.0625 0.6875 0
0.09375 0.6875 0
0.0625 0.71875 0
0.09375 0.71875 0
0.09375 0.6875 0
0.125 0.6875 0
0.09375 0.71875 0
0.125 0.71875 0
0.0625 0.71875 0
0.09375 0.71875 0
0.0625 0.75 0
0.09375 0.75 0
0.09375 0.71875 0
0.125 0.71875 0
0.09375 0.75 0
0.125 0.75 0
0.125 0.625 0
0.15625 0.625 0
0.125 0.65625 0
0.15625 0.65625 0
0.15625 0.625 0
0.1875 0.625 0
0.15625 0.65625 0
0.1875 0.65625 0
0.125 0.65625 0
0.15625 0.65625 0
0.125 0.6875 0
0.15625 0.6875 0
0.15625 0.65625 0
0.1875 0.65625 0
0.15625 0.6875 0
0.1875 0.6875 0
0.1875 0.625 0
0.21875 0.625 0
0.1875 0.65625 0
0.21875 0.65625 0
0.21875 0.625 0
0.25 0.625 0
0.21875 0.65625 0
0.25 0.65625 0
0.1875 0.65625 0
0.21875 0.65625 0
0.1875 0.6875 0
0.21875 0.6875 0
0.21875 0.65625 0
0.25 0.65625 0
0.21875 0.6875 0
0.25 0.6875 0
0.125 0.6875 0
0.15625 0.6875 0
0.125 0.71875 0
0.15625 0.71875 0
0.15625 0.6875 0
0.1875 0.6875 0
0.15625 0.71875 0
0.1875 0.71875 0
0.125 0.71875 0
0.15625 0.71875 0
0.125 0.75 0
0.15625 0.75 0
0.15625 0.71875 0
0.1875 0.71875 0
0.15625 0.75 0
0.1875 0.75 0
0.1875 0.6875 0
0.21875 0.6875 0
0.1875 0.71875 0
0.21875 0.71875 0
0.21875 0.6875 0
0.25 0.6875 0
0.21875 0.71875 0
0.25 0.71875 0
0.1875 0.71875 0
0.21875 0.71875 0
0.1875 0.75 0
0.21875 0.75 0
0.21875 0.71875 0
0.25 0.71875 0
0.21875 0.75 0
0.25 0.75 0
0.25 0.5 0
0.28125 0.5 0
0.25 0.53125 0
0.28125 0.53125 0
0.28125 0.5 0
0.3125 0.5 0
0.28125 0.53125 0
0.3125 0.53125 0
0.25 0.53125 0
0.28125 0.53125 0
0.25 0.5625 0
0.28125 0.5625 0
0.28125 0.53125 0
0.3125 0.53125 0
0.28125 0.5625 0
0.3125 0.5625 0
0.3125 0.5 0
0.34375 0.5 0
0.3125 0.53125 0
0.34375 0.53125 0
0.34375 0.5 0
0.375 0.5 0
0.34375 0.53125 0
0.375 0.53125 0
0.3125 0.53125 0
0.34375 0.53125 0
0.3125 0.5625 0
0.34375 0.5625 0
0.34375 0.53125 0
0.375 0.53125 0
0.34375 0.5625 0
0.375 0.5625 0
0.25 0.5625 0
0.28125 0.5625 0
0.25 0.59375 0
0.28125 0.59375 0
0.28125 0.5625 0
0.3125 0.5625 0
0.28125 0.59375 0
0.3125 0.59375 0
0.25 0.59375 0
0.28125 0.59375 0
0.25 0.625 0
0.28125 0.625 0
0.28125 0.59375 0
0.3125 0.59375 0
0.28125 0.625 0
0.3125 0.625 0
0.3125 0.5625 0
0.34375 0.5625 0
0.3125 0.59375 0
0.34375 0.59375 0
0.34375 0.5625 0
0.375 0.5625 0
0.34375 0.59375 0
0.375 0.59375 0
0.3125 0.59375 0
0.34375 0.59375 0
0.3125 0.625 0
0.34375 0.625 0
0.34375 0.59375 0
0.375 0.59375 0
0.34375 0.625 0
0.375 0.625 0
0.375 0.5 0
0.40625 0.5 0
0.375 0.53125 0
0.40625 0.53125 0
0.40625 0.5 0
0.4375 0.5 0
0.40625 0.53125 0
0.4375 0.53125 0
0.375 0.53125 0
0.40625 0.53125 0
0.375 0.5625 0
0.40625 0.5625 0
0.40625 0.53125 0
0.4375 0.53125 0
0.40625 0.5625 0
0.4375 0.5625 0
0.4375 0.5 0
0.46875 0.5 0
0.4375 0.53125 0
0.46875 0.53125 0
0.46875 0.5 0
0.5 0.5 0
0.46875 0.53125 0
0.5 0.53125 0
0.4375 0.53125 0
0.46875 0.53125 0
0.4375 0.5625 0
0.46875 0.5625 0
0.46875 0.53125 0
0.5 0.53125 0
0.46875 0.5625 0
0.5 0.5625 0
0.375 0.5625 0
0.40625 0.5625 0
0.375 0.59375 0
0.40625 0.59375 0
0.40625 0.5625 0
0.4375 0.5625 0
0.40625 0.59375 0
0.4375 0.59375 0
0.375 0.59375 0
0.40625 0.59375 0
0.375 0.625 0
0.40625 0.625 0
0.40625 0.59375 0
0.4375 0.59375 0
0.40625 0.625 0
0.4375 0.625 0
0.4375 0.5625 0
0.46875 0.5625 0
0.4375 0.59375 0
0.46875 0.59375 0
0.46875 0.5625 0
0.5 0.5625 0
0.46875 0.59375 0
0.5 0.59375 0
0.4375 0.59375 0
0.46875 0.59375 0
0.4375 0.625 0
0.46875 0.625 0
0.46875 0.59375 0
0.5 0.59375 0
0.46875 0.625 0
0.5 0.625 0
0.25 0.625 0
0.28125 0.625 0
0.25 0.65625 0
0.28125 0.65625 0
0.28125 0.625 0
0.3125 0.625 0
0.28125 0.65625 0
0.3125 0.65625 0
0.25 0.65625 0
0.28125 0.65625 0
0.25 0.6875 0
0.28125 0.6875 0
0.28125 0.65625 0
0.3125 0.65625 0
0.28125 0.6875 0
0.3125 0.6875 0
0.3125 0.625 0
0.34375 0.625 0
0.3125 0.65625 0
0.34375 0.65625 0
0.34375 0.625 0
0.375 0.625 0
0.34375 0.65625 0
0.375 0.65625 0
0.3125 0.65625 0
0.34375 0.65625 0
0.3125 0.6875 0
0.34375 0.6875 0
0.34375 0.65625 0
0.375 0.65625 0
0.34375 0.6875 0
0.375 0.6875 0
0.25 0.6875 0
0.28125 0.6875 0
0.25 0.71875 0
0.28125 0.71875 0
0.28125 0.6875 0
0.3125 0.6875 0
0.28125 0.71875 0
0.3125 0.71875 0
0.25 0.71875 0
0.28125 0.71875 0
0.25 0.75 0
0.28125 0.75 0
0.28125 0.71875 0
0.3125 0.71875 0
0.28125 0.75 0
0.3125 0.75 0
0.3125 0.6875 0
0.34375 0.6875 0
0.3125 0.71875 0
0.34375 0.71875 0
0.34375 0.6875 0
0.375 0.6875 0
0.34375 0.71875 0
0.375 0.71875 0
0.3125 0.71875 0
0.34375 0.71875 0
0.3125 0.75 0
0.34375 0.75 0
0.34375 0.71875 0
0.375 0.71875 0
0.34375 0.75 0
0.375 0.75 0
0.375 0.625 0
0.40625 0.625 0
0.375 0.65625 0
0.40625 0.65625 0
0.40625 0.625 0
0.4375 0.625 0
0.40625 0.65625 0
0.4375 0.65625 0
0.375 0.65625 0
0.40625 0.65625 0
0.375 0.6875 0
0.40625 0.6875 0
0.40625 0.65625 0
0.4375 0.65625 0
0.40625 0.6875 0
0.4375 0.6875 0
0.4375 0.625 0
0.46875 0.625 0
0.4375 0.65625 0
0.46875 0.65625 0
0.46875 0.625 0
0.5 0.625 0
0.46875 0.65625 0
0.5 0.65625 0
0.4375 0.65625 0
0.46875 0.65625 0
0.4375 0.6875 0
0.46875 0.6875 0
0.46875 0.65625 0
0.5 0.65625 0
0.46875 0.6875 0
0.5 0.6875 0
0.375 0.6875 0
0.40625 0.6875 0
0.375 0.71875 0
0.40625 0.71875 0
0.40625 0.6875 0
0.4375 0.6875 0
0.40625 0.71875 0
0.4375 0.71875 0
0.375 0.71875 0
0.40625 0.71875 0
0.375 0.75 0
0.40625 0.75 0
0.40625 0.71875 0
0.4375 0.71875 0
0.40625 0.75 0
0.4375 0.75 0
0.4375 0.6875 0
0.46875 0.6875 0
0.4375 0.71875 0
0.46875 0.71875 0
0.46875 0.6875 0
0.5 0.6875 0
0.46875 0.71875 0
0.5 0.71875 0
0.4375 0.71875 0
0.46875 0.71875 0
0.4375 0.75 0
0.46875 0.75 0
0.46875 0.71875 0
0.5 0.71875 0
0.46875 0.75 0
0.5 0.75 0
0 0.75 0
0.03125 0.75 0
0 0.78125 0
0.03125 0.78125 0
0.03125 0.75 0
0.0625 0.75 0
0.03125 0.78125 0
0.0625 0.78125 0
0 0.78125 0
0.03125 0.78125 0
0 0.8125 0
0.03125 0.8125 0
0.03125 0.78125 0
0.0625 0.78125 0
0.03125 0.8125 0
0.0625 0.8125 0
0.0625 0.75 0
0.09375 0.75 0
0.0625 0.78125 0
0.09375 0.78125 0
0.09375 0.75 0
0.125 0.75 0
0.09375 0.78125 0
0.125 0.78125 0
0.0625 0.78125 0
0.09375 0.78125 0
0.0625 0.8125 0
0.09375 0.8125 0
0.09375 0.78125 0
0.125 0.78125 0
0.09375 0.8125 0
0.125 0.8125 0
0 0.8125 0
0.03125 0.8125 0
0 0.84375 0
0.03125 0.84375 0
0.03125 0.8125 0
0.0625 0.8125 0
0.03125 0.84375 0
0.0625 0.84375 0
0 0.84375 0
0.03125 0.84375 0
0 0.875 0
0.03125 0.875 0
0.03125 0.84375 0
0.0625 0.84375 0
0.03125 0.875 0
0.0625 0.875 0
0.0625 0.8125 0
0.09375 0.8125 0
0.0625 0.84375 0
0.09375 0.84375 0
0.09375 0.8125 0
0.125 0.8125 0
0.09375 0.84375 0
0.125 0.84375 0
0.0625 0.84375 0
0.09375 0.84375 0
0.0625 0.875 0
0.09375 0.875 0
0.09375 0.84375 0
0.125 0.84375 0
0.09375 0.875 0
0.125 0.875 0
0.125 0.75 0
0.15625 0.75 0
0.125 0.78125 0
0.15625 0.78125 0
0.15625 0.75 0
0.1875 0.75 0
0.15625 0.78125 0
0.1875 0.78125 0
0.125 0.78125 0
0.15625 0.78125 0
0.125 0.8125 0
0.15625 0.8125 0
0.15625 0.78125 0
0.1875 0.78125 0
0.15625 0.8125 0
0.1875 0.8125 0
0.1875 0.75 0
0.21875 0.75 0
0.1875 0.78125 0
0.21875 0.78125 0
0.21875 0.75 0
0.25 0.75 0
0.21875 0.78125 0
0.25 0.78125 0
0.1875 0.78125 0
0.21875 0.78125 0
0.1875 0.8125 0
0.21875 0.8125 0
0.21875 0.78125 0
0.25 0.78125 0
0.21875 0.8125 0
0.25 0.8125 0
0.125 0.8125 0
0.15625 0.8125 0
0.125 0.84375 0
0.15625 0.84375 0
0.15625 0.8125 0
[...]
POINT_DATA 4096
SCALARS State_InstatPDEProblemContainer_0 double 1
LOOKUP_TABLE default
-0.000200079 -0.000200078 -0.000214084 -0.000214099 -0.000200078 -0.000200074 -0.000214099 -0.000214142 -0.000214084 -0.000214099 -0.000228036 -0.000228064 -0.000214099 -0.000214142 -0.000228064 -0.000228152 -0.000200074 -0.000200067 -0.000214142 -0.000214215 -0.000200067 -0.000200058 -0.000214215 -0.000214323 -0.000214142 -0.000214215 -0.000228152 -0.000228301 -0.000214215 -0.000214323 -0.000228301 -0.000228517 -0.000228036 -0.000228064 -0.000241877 -0.000241918 -0.000228064 -0.000228152 -0.000241918 -0.000242044 -0.000241877 -0.000241918 -0.000255558 -0.000255609 -0.000241918 -0.000242044 -0.000255609 -0.000255766 -0.000228152 -0.000228301 -0.000242044 -0.000242258 -0.000228301 -0.000228517 -0.000242258 -0.000242568 -0.000242044 -0.000242258 -0.000255766 -0.000256031 -0.000242258 -0.000242568 -0.000256031 -0.000256414 -0.000200058 -0.000200045 -0.000214323 -0.000214468 -0.000200045 -0.000200028 -0.000214468 -0.00021466 -0.000214323 -0.000214468 -0.000228517 -0.00022881 -0.000214468 -0.00021466 -0.00022881 -0.000229192 -0.000200028 -0.000200008 -0.00021466 -0.000214907 -0.000200008 -0.000199983 -0.000214907 -0.000215225 -0.00021466 -0.000214907 -0.000229192 -0.000229683 -0.000214907 -0.000215225 -0.000229683 -0.000230309 -0.000228517 -0.00022881 -0.000242568 -0.000242986 -0.00022881 -0.000229192 -0.000242986 -0.000243527 -0.000242568 -0.000242986 -0.000256414 -0.000256926 -0.000242986 -0.000243527 -0.000256926 -0.000257584 -0.000229192 -0.000229683 -0.000243527 -0.000244215 -0.000229683 -0.000230309 -0.000244215 -0.000245082 -0.000243527 -0.000244215 -0.000257584 -0.00025841 -0.000244215 -0.000245082 -0.00025841 -0.000259434 -0.000255558 -0.000255609 -0.000269034 -0.000269093 -0.000255609 -0.000255766 -0.000269093 -0.000269271 -0.000269034 -0.000269093 -0.000282273 -0.000282336 -0.000269093 -0.000269271 -0.000282336 -0.000282526 -0.000255766 -0.000256031 -0.000269271 -0.000269573 -0.000256031 -0.000256414 -0.000269573 -0.000270005 -0.000269271 -0.000269573 -0.000282526 -0.000282847 -0.000269573 -0.000270005 -0.000282847 -0.000283304 -0.000282273 -0.000282336 -0.000295248 -0.000295312 -0.000282336 -0.000282526 -0.000295312 -0.000295506 -0.000295248 -0.000295312 -0.000307943 -0.000308006 -0.000295312 -0.000295506 -0.000308006 -0.000308195 -0.000282526 -0.000282847 -0.000295506 -0.000295831 -0.000282847 -0.000283304 -0.000295831 -0.000296292 -0.000295506 -0.000295831 -0.000308195 -0.000308512 -0.000295831 -0.000296292 -0.000308512 -0.000308959 -0.000256414 -0.000256926 -0.000270005 -0.000270578 -0.000256926 -0.000257584 -0.000270578 -0.000271307 -0.000270005 -0.000270578 -0.000283304 -0.000283906 -0.000270578 -0.000271307 -0.000283906 -0.000284663 -0.000257584 -0.00025841 -0.000271307 -0.000272209 -0.00025841 -0.000259434 -0.000272209 -0.000273309 -0.000271307 -0.000272209 -0.000284663 -0.000285586 -0.000272209 -0.000273309 -0.000285586 -0.00028669 -0.000283304 -0.000283906 -0.000296292 -0.000296893 -0.000283906 -0.000284663 -0.000296893 -0.000297641 -0.000296292 -0.000296893 -0.000308959 -0.000309536 -0.000296893 -0.000297641 -0.000309536 -0.000310245 -0.000284663 -0.000285586 -0.000297641 -0.00029854 -0.000285586 -0.00028669 -0.00029854 -0.000299595 -0.000297641 -0.00029854 -0.000310245 -0.000311085 -0.00029854 -0.000299595 -0.000311085 -0.000312055 -0.000199983 -0.000199952 -0.000215225 -0.000215638 -0.000199952 -0.000199915 -0.000215638 -0.000216181 -0.000215225 -0.000215638 -0.000230309 -0.00023111 -0.000215638 -0.000216181 -0.00023111 -0.000232145 -0.000199915 -0.000199868 -0.000216181 -0.000216913 -0.000199868 -0.000199809 -0.000216913 -0.000217934 -0.000216181 -0.000216913 -0.000232145 -0.000233504 -0.000216913 -0.000217934 -0.000233504 -0.000235328 -0.000230309 -0.00023111 -0.000245082 -0.000246171 -0.00023111 -0.000232145 -0.000246171 -0.000247545 -0.000245082 -0.000246171 -0.000259434 -0.000260695 -0.000246171 -0.000247545 -0.000260695 -0.000262239 -0.000232145 -0.000233504 -0.000247545 -0.000249287 -0.000233504 -0.000235328 -0.000249287 -0.00025151 -0.000247545 -0.000249287 -0.000262239 -0.000264123 -0.000249287 -0.00025151 -0.000264123 -0.000266399 -0.000199809 -0.00019973 -0.000217934 -0.000219432 -0.00019973 -0.000199616 -0.000219432 -0.000221817 -0.000217934 -0.000219432 -0.000235328 -0.000237846 -0.000219432 -0.000221817 -0.000237846 -0.000241402 -0.000199616 -0.000199402 -0.000221817 -0.000226022 -0.000199402 -0.000199102 -0.000226022 -0.000235213 -0.000221817 -0.000226022 -0.000241402 -0.000246514 -0.000226022 -0.000235213 -0.000246514 -0.000251909 -0.000235328 -0.000237846 -0.00025151 -0.000254344 -0.000237846 -0.000241402 -0.000254344 -0.000257896 -0.00025151 -0.000254344 -0.000266399 -0.000269093 -0.000254344 -0.000257896 -0.000269093 -0.000272125 -0.000241402 -0.000246514 -0.000257896 -0.000261901 -0.000246514 -0.000251909 -0.000261901 -0.000266012 -0.000257896 -0.000261901 -0.000272125 -0.000275306 -0.000261901 -0.000266012 -0.000275306 -0.000278364 -0.000259434 -0.000260695 -0.000273309 -0.000274631 -0.000260695 -0.000262239 -0.000274631 -0.000276203 -0.000273309 -0.000274631 -0.00028669 -0.000287987 -0.000274631 -0.000276203 -0.000287987 -0.000289485 -0.000262239 -0.000264123 -0.000276203 -0.000278047 -0.000264123 -0.000266399 -0.000278047 -0.000280167 -0.000276203 -0.000278047 -0.000289485 -0.00029118 -0.000278047 -0.000280167 -0.00029118 -0.000293048 -0.00028669 -0.000287987 -0.000299595 -0.000300806 -0.000287987 -0.000289485 -0.000300806 -0.000302168 -0.000299595 -0.000300806 -0.000312055 -0.000313146 -0.000300806 -0.000302168 -0.000313146 -0.000314342 -0.000289485 -0.00029118 -0.000302168 -0.000303662 -0.00029118 -0.000293048 -0.000303662 -0.000305251 -0.000302168 -0.000303662 -0.000314342 -0.000315618 -0.000303662 -0.000305251 -0.000315618 -0.000316936 -0.000266399 -0.000269093 -0.000280167 -0.000282524 -0.000269093 -0.000272125 -0.000282524 -0.000285023 -0.000280167 -0.000282524 -0.000293048 -0.000295033 -0.000282524 -0.000285023 -0.000295033 -0.000297047 -0.000272125 -0.000275306 -0.000285023 -0.000287509 -0.000275306 -0.000278364 -0.000287509 -0.000289848 -0.000285023 -0.000287509 -0.000297047 -0.000298987 -0.000287509 -0.000289848 -0.000298987 -0.000300777 -0.000293048 -0.000295033 -0.000305251 -0.000306881 -0.000295033 -0.000297047 -0.000306881 -0.000308482 -0.000305251 -0.000306881 -0.000316936 -0.000318248 -0.000306881 -0.000308482 -0.000318248 -0.000319502 -0.000297047 -0.000298987 -0.000308482 -0.000309985 -0.000298987 -0.000300777 -0.000309985 -0.000311347 -0.000308482 -0.000309985 -0.000319502 -0.000320652 -0.000309985 -0.000311347 -0.000320652 -0.000321671 -0.000307943 -0.000308006 -0.000320351 -0.000320411 -0.000308006 -0.000308195 -0.000320411 -0.00032059 -0.000320351 -0.000320411 -0.000332473 -0.000332528 -0.000320411 -0.00032059 -0.000332528 -0.000332691 -0.000308195 -0.000308512 -0.00032059 -0.000320888 -0.000308512 -0.000308959 -0.000320888 -0.000321305 -0.00032059 -0.000320888 -0.000332691 -0.000332962 -0.000320888 -0.000321305 -0.000332962 -0.000333339 -0.000332473 -0.000332528 -0.000344316 -0.000344365 -0.000332528 -0.000332691 -0.000344365 -0.000344508 -0.000344316 -0.000344365 -0.000355894 -0.000355935 -0.000344365 -0.000344508 -0.000355935 -0.000356056 -0.000332691 -0.000332962 -0.000344508 -0.000344746 -0.000332962 -0.000333339 -0.000344746 -0.000345075 -0.000344508 -0.000344746 -0.000356056 -0.000356256 -0.000344746 -0.000345075 -0.000356256 -0.000356531 -0.000308959 -0.000309536 -0.000321305 -0.000321839 -0.000309536 -0.000310245 -0.000321839 -0.000322489 -0.000321305 -0.000321839 -0.000333339 -0.000333818 -0.000321839 -0.000322489 -0.000333818 -0.000334395 -0.000310245 -0.000311085 -0.000322489 -0.00032325 -0.000311085 -0.000312055 -0.00032325 -0.000324112 -0.000322489 -0.00032325 -0.000334395 -0.000335062 -0.00032325 -0.000324112 -0.000335062 -0.000335806 -0.000333339 -0.000333818 -0.000345075 -0.00034549 -0.000333818 -0.000334395 -0.00034549 -0.000345985 -0.000345075 -0.00034549 -0.000356531 -0.000356876 -0.00034549 -0.000345985 -0.000356876 -0.000357284 -0.000334395 -0.000335062 -0.000345985 -0.000346551 -0.000335062 -0.000335806 -0.000346551 -0.000347174 -0.000345985 -0.000346551 -0.000357284 -0.000357745 -0.000346551 -0.000347174 -0.000357745 -0.000358247 -0.000355894 -0.000355935 -0.000367225 -0.000367257 -0.000355935 -0.000356056 -0.000367257 -0.000367353 -0.000367225 -0.000367257 -0.000378333 -0.000378356 -0.000367257 -0.000367353 -0.000378356 -0.000378423 -0.000356056 -0.000356256 -0.000367353 -0.000367511 -0.000356256 -0.000356531 -0.000367511 -0.000367727 -0.000367353 -0.000367511 -0.000378423 -0.000378534 -0.000367511 -0.000367727 -0.000378534 -0.000378686 -0.000378333 -0.000378356 -0.000389246 -0.000389258 -0.000378356 -0.000378423 -0.000389258 -0.000389294 -0.000389246 -0.000389258 -0.0004 -0.0004 -0.000389258 -0.000389294 -0.0004 -0.0004 -0.000378423 -0.000378534 -0.000389294 -0.000389354 -0.000378534 -0.000378686 -0.000389354 -0.000389434 -0.000389294 -0.000389354 -0.0004 -0.0004 -0.000389354 -0.000389434 -0.0004 -0.0004 -0.000356531 -0.000356876 -0.000367727 -0.000367997 -0.000356876 -0.000357284 -0.000367997 -0.000368313 -0.000367727 -0.000367997 -0.000378686 -0.000378875 -0.000367997 -0.000368313 -0.000378875 -0.000379095 -0.000357284 -0.000357745 -0.000368313 -0.000368668 -0.000357745 -0.000358247 -0.000368668 -0.00036905 -0.000368313 -0.000368668 -0.000379095 -0.000379341 -0.000368668 -0.00036905 -0.000379341 -0.000379602 -0.000378686 -0.000378875 -0.000389434 -0.000389534 -0.000378875 -0.000379095 -0.000389534 -0.000389651 -0.000389434 -0.000389534 -0.0004 -0.0004 -0.000389534 -0.000389651 -0.0004 -0.0004 -0.000379095 -0.000379341 -0.000389651 -0.00038978 -0.000379341 -0.000379602 -0.00038978 -0.000389916 -0.000389651 -0.00038978 -0.0004 -0.0004 -0.00038978 -0.000389916 -0.0004 -0.0004 -0.000312055 -0.000313146 -0.000324112 -0.000325064 -0.000313146 -0.000314342 -0.000325064 -0.000326084 -0.000324112 -0.000325064 -0.000335806 -0.000336613 -0.000325064 -0.000326084 -0.000336613 -0.000337461 -0.000314342 -0.000315618 -0.000326084 -0.000327147 -0.000315618 -0.000316936 -0.000327147 -0.000328216 -0.000326084 -0.000327147 -0.000337461 -0.000338325 -0.000327147 -0.000328216 -0.000338325 -0.000339172 -0.000335806 -0.000336613 -0.000347174 -0.000347838 -0.000336613 -0.000337461 -0.000347838 -0.000348524 -0.000347174 -0.000347838 -0.000358247 -0.000358774 -0.000347838 -0.000348524 -0.000358774 -0.000359308 -0.000337461 -0.000338325 -0.000348524 -0.000349206 -0.000338325 -0.000339172 -0.000349206 -0.000349861 -0.000348524 -0.000349206 -0.000359308 -0.000359829 -0.000349206 -0.000349861 -0.000359829 -0.000360317 -0.000316936 -0.000318248 -0.000328216 -0.000329252 -0.000318248 -0.000319502 -0.000329252 -0.000330217 -0.000328216 -0.000329252 -0.000339172 -0.000339973 -0.000329252 -0.000330217 -0.000339973 -0.000340697 -0.000319502 -0.000320652 -0.000330217 -0.000331078 -0.000320652 -0.000321671 -0.000331078 -0.000331822 -0.000330217 -0.000331078 -0.000340697 -0.000341324 -0.000331078 -0.000331822 -0.000341324 -0.000341844 -0.000339172 -0.000339973 -0.000349861 -0.000350462 -0.000339973 -0.000340697 -0.000350462 -0.000350987 -0.000349861 -0.000350462 -0.000360317 -0.00036075 -0.000350462 -0.000350987 -0.00036075 -0.000361114 -0.000340697 -0.000341324 -0.000350987 -0.000351424 -0.000341324 -0.000341844 -0.000351424 -0.000351766 -0.000350987 -0.000351424 -0.000361114 -0.000361399 -0.000351424 -0.000351766 -0.000361399 -0.000361602 -0.000358247 -0.000358774 -0.00036905 -0.000369446 -0.000358774 -0.000359308 -0.000369446 -0.00036984 -0.00036905 -0.000369446 -0.000379602 -0.00037987 -0.000369446 -0.00036984 -0.00037987 -0.000380133 -0.000359308 -0.000359829 -0.00036984 -0.000370217 -0.000359829 -0.000360317 -0.000370217 -0.00037056 -0.00036984 -0.000370217 -0.000380133 -0.000380378 -0.000370217 -0.00037056 -0.000380378 -0.000380596 -0.000379602 -0.00037987 -0.000389916 -0.000390054 -0.00037987 -0.000380133 -0.000390054 -0.000390188 -0.000389916 -0.000390054 -0.0004 -0.0004 -0.000390054 -0.000390188 -0.0004 -0.0004 -0.000380133 -0.000380378 -0.000390188 -0.000390311 -0.000380378 -0.000380596 -0.000390311 -0.000390416 -0.000390188 -0.000390311 -0.0004 -0.0004 -0.000390311 -0.000390416 -0.0004 -0.0004 -0.000360317 -0.00036075 -0.00037056 -0.000370854 -0.00036075 -0.000361114 -0.000370854 -0.000371087 -0.00037056 -0.000370854 -0.000380596 -0.000380774 -0.000370854 -0.000371087 -0.000380774 -0.000380906 -0.000361114 -0.000361399 -0.000371087 -0.000371255 -0.000361399 -0.000361602 -0.000371255 -0.000371355 -0.000371087 -0.000371255 -0.000380906 -0.000380988 -0.000371255 -0.000371355 -0.000380988 -0.000381019 -0.000380596 -0.000380774 -0.000390416 -0.000390499 -0.000380774 -0.000380906 -0.000390499 -0.000390554 -0.000390416 -0.000390499 -0.0004 -0.0004 -0.000390499 -0.000390554 -0.0004 -0.0004 -0.000380906 -0.000380988 -0.000390554 -0.00039058 -0.000380988 -0.000381019 -0.00039058 -0.000390577 -0.000390554 -0.00039058 -0.0004 -0.0004 -0.00039058 -0.000390577 -0.0004 -0.0004 -0.000199102 -0.000229641 -0.000235213 -0.000242619 -0.000229641 -0.000247771 -0.000242619 -0.000252801 -0.000235213 -0.000242619 -0.000251909 -0.000257518 -0.000242619 -0.000252801 -0.000257518 -0.000262915 -0.000247771 -0.000260095 -0.000252801 -0.000262396 -0.000260095 -0.000269423 -0.000262396 -0.000270594 -0.000252801 -0.000262396 -0.000262915 -0.000269089 -0.000262396 -0.000270594 -0.000269089 -0.000275229 -0.000251909 -0.000257518 -0.000266012 -0.000269809 -0.000257518 -0.000262915 -0.000269809 -0.000273629 -0.000266012 -0.000269809 -0.000278364 -0.000281214 -0.000269809 -0.000273629 -0.000281214 -0.00028396 -0.000262915 -0.000269089 -0.000273629 -0.000277678 -0.000269089 -0.000275229 -0.000277678 -0.000282004 -0.000273629 -0.000277678 -0.00028396 -0.000286829 -0.000277678 -0.000282004 -0.000286829 -0.000289882 -0.000269423 -0.000276857 -0.000270594 -0.000277492 -0.000276857 -0.00028294 -0.000277492 -0.000283298 -0.000270594 -0.000277492 -0.000275229 -0.000280885 -0.000277492 -0.000283298 -0.000280885 -0.000285914 -0.00028294 -0.00028798 -0.000283298 -0.000288193 -0.00028798 -0.000292175 -0.000288193 -0.000292316 -0.000283298 -0.000288193 -0.000285914 -0.000290305 -0.000288193 -0.000292316 -0.000290305 -0.000294093 -0.000275229 -0.000280885 -0.000282004 -0.000286306 -0.000280885 -0.000285914 -0.000286306 -0.000290362 -0.000282004 -0.000286306 -0.000289882 -0.000293044 -0.000286306 -0.000290362 -0.000293044 -0.000296165 -0.000285914 -0.000290305 -0.000290362 -0.000294055 -0.000290305 -0.000294093 -0.000294055 -0.000297339 -0.000290362 -0.000294055 -0.000296165 -0.000299122 -0.000294055 -0.000297339 -0.000299122 -0.000301834 -0.000278364 -0.000281214 -0.000289848 -0.000291995 -0.000281214 -0.00028396 -0.000291995 -0.000294039 -0.000289848 -0.000291995 -0.000300777 -0.000302403 -0.000291995 -0.000294039 -0.000302403 -0.000303923 -0.00028396 -0.000286829 -0.000294039 -0.00029611 -0.000286829 -0.000289882 -0.00029611 -0.000298296 -0.000294039 -0.00029611 -0.000303923 -0.000305429 -0.00029611 -0.000298296 -0.000305429 -0.000306993 -0.000300777 -0.000302403 -0.000311347 -0.000312565 -0.000302403 -0.000303923 -0.000312565 -0.000313682 -0.000311347 -0.000312565 -0.000321671 -0.000322564 -0.000312565 -0.000313682 -0.000322564 -0.000323363 -0.000303923 -0.000305429 -0.000313682 -0.000314763 -0.000305429 -0.000306993 -0.000314763 -0.000315866 -0.000313682 -0.000314763 -0.000323363 -0.000324115 -0.000314763 -0.000315866 -0.000324115 -0.000324867 -0.000289882 -0.000293044 -0.000298296 -0.000300589 -0.000293044 -0.000296165 -0.000300589 -0.000302919 -0.000298296 -0.000300589 -0.000306993 -0.000308637 -0.000300589 -0.000302919 -0.000308637 -0.000310336 -0.000296165 -0.000299122 -0.000302919 -0.000305199 -0.000299122 -0.000301834 -0.000305199 -0.000307351 -0.000302919 -0.000305199 -0.000310336 -0.000312037 -0.000305199 -0.000307351 -0.000312037 -0.000313684 -0.000306993 -0.000308637 -0.000315866 -0.00031702 -0.000308637 -0.000310336 -0.00031702 -0.000318225 -0.000315866 -0.00031702 -0.000324867 -0.000325648 -0.00031702 -0.000318225 -0.000325648 -0.000326469 -0.000310336 -0.000312037 -0.000318225 -0.000319454 -0.000312037 -0.000313684 -0.000319454 -0.000320668 -0.000318225 -0.000319454 -0.000326469 -0.00032732 -0.000319454 -0.000320668 -0.00032732 -0.000328177 -0.000292175 -0.00029566 -0.000292316 -0.000295772 -0.00029566 -0.000298532 -0.000295772 -0.000298638 -0.000292316 -0.000295772 -0.000294093 -0.000297321 -0.000295772 -0.000298638 -0.000297321 -0.000300032 -0.000298532 -0.000300863 -0.000298638 -0.000300978 -0.000300863 -0.000302707 -0.000300978 -0.000302835 -0.000298638 -0.000300978 -0.000300032 -0.000302265 -0.000300978 -0.000302835 -0.000302265 -0.00030405 -0.000294093 -0.000297321 -0.000297339 -0.0003002 -0.000297321 -0.000300032 -0.0003002 -0.000302643 -0.000297339 -0.0003002 -0.000301834 -0.000304257 -0.0003002 -0.000302643 -0.000304257 -0.000306364 -0.000300032 -0.000302265 -0.000302643 -0.00030468 -0.000302265 -0.00030405 -0.00030468 -0.000306325 -0.000302643 -0.00030468 -0.000306364 -0.000308147 -0.00030468 -0.000306325 -0.000308147 -0.000309602 -0.000302707 -0.000304104 -0.000302835 -0.000304247 -0.000304104 -0.000305082 -0.000304247 -0.000305238 -0.000302835 -0.000304247 -0.00030405 -0.000305414 -0.000304247 -0.000305238 -0.000305414 -0.000306375 -0.000305082 -0.000305661 -0.000305238 -0.000305825 -0.000305661 -0.000305853 -0.000305825 -0.00030602 -0.000305238 -0.000305825 -0.000306375 -0.000306946 -0.000305825 -0.00030602 -0.000306946 -0.000307135 -0.00030405 -0.000305414 -0.000306325 -0.000307589 -0.000305414 -0.000306375 -0.000307589 -0.000308484 -0.000306325 -0.000307589 -0.000309602 -0.00031073 -0.000307589 -0.000308484 -0.00031073 -0.000311533 -0.000306375 -0.000306946 -0.000308484 -0.000309018 -0.000306946 -0.000307135 -0.000309018 -0.000309195 -0.000308484 -0.000309018 -0.000311533 -0.000312014 -0.000309018 -0.000309195 -0.000312014 -0.000312174 -0.000301834 -0.000304257 -0.000307351 -0.000309319 -0.000304257 -0.000306364 -0.000309319 -0.000311066 -0.000307351 -0.000309319 -0.000313684 -0.000315224 -0.000309319 -0.000311066 -0.000315224 -0.000316618 -0.000306364 -0.000308147 -0.000311066 -0.000312567 -0.000308147 -0.000309602 -0.000312567 -0.000313806 -0.000311066 -0.000312567 -0.000316618 -0.000317834 -0.000312567 -0.000313806 -0.000317834 -0.000318851 -0.000313684 -0.000315224 -0.000320668 -0.000321828 -0.000315224 -0.000316618 -0.000321828 -0.000322897 -0.000320668 -0.000321828 -0.000328177 -0.000329013 -0.000321828 -0.000322897 -0.000329013 -0.000329798 -0.000316618 -0.000317834 -0.000322897 -0.000323845 -0.000317834 -0.000318851 -0.000323845 -0.000324649 -0.000322897 -0.000323845 -0.000329798 -0.000330506 -0.000323845 -0.000324649 -0.000330506 -0.000331114 -0.000309602 -0.00031073 -0.000313806 -0.000314776 -0.00031073 -0.000311533 -0.000314776 -0.000315471 -0.000313806 -0.000314776 -0.000318851 -0.000319655 -0.000314776 -0.000315471 -0.000319655 -0.000320235 -0.000311533 -0.000312014 -0.000315471 -0.000315889 -0.000312014 -0.000312174 -0.000315889 -0.000316028 -0.000315471 -0.000315889 -0.000320235 -0.000320585 -0.000315889 -0.000316028 -0.000320585 -0.000320702 -0.000318851 -0.000319655 -0.000324649 -0.00032529 -0.000319655 -0.000320235 -0.00032529 -0.000325756 -0.000324649 -0.00032529 -0.000331114 -0.000331605 -0.00032529 -0.000325756 -0.000331605 -0.000331965 -0.000320235 -0.000320585 -0.000325756 -0.000326039 -0.000320585 -0.000320702 -0.000326039 -0.000326134 -0.000325756 -0.000326039 -0.000331965 -0.000332185 -0.000326039 -0.000326134 -0.000332185 -0.000332258 -0.000321671 -0.000322564 -0.000331822 -0.000332454 -0.000322564 -0.000323363 -0.000332454 -0.000332998 -0.000331822 -0.000332454 -0.000341844 -0.000342266 -0.000332454 -0.000332998 -0.000342266 -0.000342609 -0.000323363 -0.