# vtk DataFile Version 3.0
#This file was generated by the deal.II library on 2018/6/20 at 8:19:47
ASCII
DATASET UNSTRUCTURED_GRID

POINTS 4096 double
0 0.5 0
0.03125 0.5 0
0 0.53125 0
0.03125 0.53125 0
0.03125 0.5 0
0.0625 0.5 0
0.03125 0.53125 0
0.0625 0.53125 0
0 0.53125 0
0.03125 0.53125 0
0 0.5625 0
0.03125 0.5625 0
0.03125 0.53125 0
0.0625 0.53125 0
0.03125 0.5625 0
0.0625 0.5625 0
0.0625 0.5 0
0.09375 0.5 0
0.0625 0.53125 0
0.09375 0.53125 0
0.09375 0.5 0
0.125 0.5 0
0.09375 0.53125 0
0.125 0.53125 0
0.0625 0.53125 0
0.09375 0.53125 0
0.0625 0.5625 0
0.09375 0.5625 0
0.09375 0.53125 0
0.125 0.53125 0
0.09375 0.5625 0
0.125 0.5625 0
0 0.5625 0
0.03125 0.5625 0
0 0.59375 0
0.03125 0.59375 0
0.03125 0.5625 0
0.0625 0.5625 0
0.03125 0.59375 0
0.0625 0.59375 0
0 0.59375 0
0.03125 0.59375 0
0 0.625 0
0.03125 0.625 0
0.03125 0.59375 0
0.0625 0.59375 0
0.03125 0.625 0
0.0625 0.625 0
0.0625 0.5625 0
0.09375 0.5625 0
0.0625 0.59375 0
0.09375 0.59375 0
0.09375 0.5625 0
0.125 0.5625 0
0.09375 0.59375 0
0.125 0.59375 0
0.0625 0.59375 0
0.09375 0.59375 0
0.0625 0.625 0
0.09375 0.625 0
0.09375 0.59375 0
0.125 0.59375 0
0.09375 0.625 0
0.125 0.625 0
0.125 0.5 0
0.15625 0.5 0
0.125 0.53125 0
0.15625 0.53125 0
0.15625 0.5 0
0.1875 0.5 0
0.15625 0.53125 0
0.1875 0.53125 0
0.125 0.53125 0
0.15625 0.53125 0
0.125 0.5625 0
0.15625 0.5625 0
0.15625 0.53125 0
0.1875 0.53125 0
0.15625 0.5625 0
0.1875 0.5625 0
0.1875 0.5 0
0.21875 0.5 0
0.1875 0.53125 0
0.21875 0.53125 0
0.21875 0.5 0
0.25 0.5 0
0.21875 0.53125 0
0.25 0.53125 0
0.1875 0.53125 0
0.21875 0.53125 0
0.1875 0.5625 0
0.21875 0.5625 0
0.21875 0.53125 0
0.25 0.53125 0
0.21875 0.5625 0
0.25 0.5625 0
0.125 0.5625 0
0.15625 0.5625 0
0.125 0.59375 0
0.15625 0.59375 0
0.15625 0.5625 0
0.1875 0.5625 0
0.15625 0.59375 0
0.1875 0.59375 0
0.125 0.59375 0
0.15625 0.59375 0
0.125 0.625 0
0.15625 0.625 0
0.15625 0.59375 0
0.1875 0.59375 0
0.15625 0.625 0
0.1875 0.625 0
0.1875 0.5625 0
0.21875 0.5625 0
0.1875 0.59375 0
0.21875 0.59375 0
0.21875 0.5625 0
0.25 0.5625 0
0.21875 0.59375 0
0.25 0.59375 0
0.1875 0.59375 0
0.21875 0.59375 0
0.1875 0.625 0
0.21875 0.625 0
0.21875 0.59375 0
0.25 0.59375 0
0.21875 0.625 0
0.25 0.625 0
0 0.625 0
0.03125 0.625 0
0 0.65625 0
0.03125 0.65625 0
0.03125 0.625 0
0.0625 0.625 0
0.03125 0.65625 0
0.0625 0.65625 0
0 0.65625 0
0.03125 0.65625 0
0 0.6875 0
0.03125 0.6875 0
0.03125 0.65625 0
0.0625 0.65625 0
0.03125 0.6875 0
0.0625 0.6875 0
0.0625 0.625 0
0.09375 0.625 0
0.0625 0.65625 0
0.09375 0.65625 0
0.09375 0.625 0
0.125 0.625 0
0.09375 0.65625 0
0.125 0.65625 0
0.0625 0.65625 0
0.09375 0.65625 0
0.0625 0.6875 0
0.09375 0.6875 0
0.09375 0.65625 0
0.125 0.65625 0
0.09375 0.6875 0
0.125 0.6875 0
0 0.6875 0
0.03125 0.6875 0
0 0.71875 0
0.03125 0.71875 0
0.03125 0.6875 0
0.0625 0.6875 0
0.03125 0.71875 0
0.0625 0.71875 0
0 0.71875 0
0.03125 0.71875 0
0 0.75 0
0.03125 0.75 0
0.03125 0.71875 0
0.0625 0.71875 0
0.03125 0.75 0
0.0625 0.75 0
0.0625 0.6875 0
0.09375 0.6875 0
0.0625 0.71875 0
0.09375 0.71875 0
0.09375 0.6875 0
0.125 0.6875 0
0.09375 0.71875 0
0.125 0.71875 0
0.0625 0.71875 0
0.09375 0.71875 0
0.0625 0.75 0
0.09375 0.75 0
0.09375 0.71875 0
0.125 0.71875 0
0.09375 0.75 0
0.125 0.75 0
0.125 0.625 0
0.15625 0.625 0
0.125 0.65625 0
0.15625 0.65625 0
0.15625 0.625 0
0.1875 0.625 0
0.15625 0.65625 0
0.1875 0.65625 0
0.125 0.65625 0
0.15625 0.65625 0
0.125 0.6875 0
0.15625 0.6875 0
0.15625 0.65625 0
0.1875 0.65625 0
0.15625 0.6875 0
0.1875 0.6875 0
0.1875 0.625 0
0.21875 0.625 0
0.1875 0.65625 0
0.21875 0.65625 0
0.21875 0.625 0
0.25 0.625 0
0.21875 0.65625 0
0.25 0.65625 0
0.1875 0.65625 0
0.21875 0.65625 0
0.1875 0.6875 0
0.21875 0.6875 0
0.21875 0.65625 0
0.25 0.65625 0
0.21875 0.6875 0
0.25 0.6875 0
0.125 0.6875 0
0.15625 0.6875 0
0.125 0.71875 0
0.15625 0.71875 0
0.15625 0.6875 0
0.1875 0.6875 0
0.15625 0.71875 0
0.1875 0.71875 0
0.125 0.71875 0
0.15625 0.71875 0
0.125 0.75 0
0.15625 0.75 0
0.15625 0.71875 0
0.1875 0.71875 0
0.15625 0.75 0
0.1875 0.75 0
0.1875 0.6875 0
0.21875 0.6875 0
0.1875 0.71875 0
0.21875 0.71875 0
0.21875 0.6875 0
0.25 0.6875 0
0.21875 0.71875 0
0.25 0.71875 0
0.1875 0.71875 0
0.21875 0.71875 0
0.1875 0.75 0
0.21875 0.75 0
0.21875 0.71875 0
0.25 0.71875 0
0.21875 0.75 0
0.25 0.75 0
0.25 0.5 0
0.28125 0.5 0
0.25 0.53125 0
0.28125 0.53125 0
0.28125 0.5 0
0.3125 0.5 0
0.28125 0.53125 0
0.3125 0.53125 0
0.25 0.53125 0
0.28125 0.53125 0
0.25 0.5625 0
0.28125 0.5625 0
0.28125 0.53125 0
0.3125 0.53125 0
0.28125 0.5625 0
0.3125 0.5625 0
0.3125 0.5 0
0.34375 0.5 0
0.3125 0.53125 0
0.34375 0.53125 0
0.34375 0.5 0
0.375 0.5 0
0.34375 0.53125 0
0.375 0.53125 0
0.3125 0.53125 0
0.34375 0.53125 0
0.3125 0.5625 0
0.34375 0.5625 0
0.34375 0.53125 0
0.375 0.53125 0
0.34375 0.5625 0
0.375 0.5625 0
0.25 0.5625 0
0.28125 0.5625 0
0.25 0.59375 0
0.28125 0.59375 0
0.28125 0.5625 0
0.3125 0.5625 0
0.28125 0.59375 0
0.3125 0.59375 0
0.25 0.59375 0
0.28125 0.59375 0
0.25 0.625 0
0.28125 0.625 0
0.28125 0.59375 0
0.3125 0.59375 0
0.28125 0.625 0
0.3125 0.625 0
0.3125 0.5625 0
0.34375 0.5625 0
0.3125 0.59375 0
0.34375 0.59375 0
0.34375 0.5625 0
0.375 0.5625 0
0.34375 0.59375 0
0.375 0.59375 0
0.3125 0.59375 0
0.34375 0.59375 0
0.3125 0.625 0
0.34375 0.625 0
0.34375 0.59375 0
0.375 0.59375 0
0.34375 0.625 0
0.375 0.625 0
0.375 0.5 0
0.40625 0.5 0
0.375 0.53125 0
0.40625 0.53125 0
0.40625 0.5 0
0.4375 0.5 0
0.40625 0.53125 0
0.4375 0.53125 0
0.375 0.53125 0
0.40625 0.53125 0
0.375 0.5625 0
0.40625 0.5625 0
0.40625 0.53125 0
0.4375 0.53125 0
0.40625 0.5625 0
0.4375 0.5625 0
0.4375 0.5 0
0.46875 0.5 0
0.4375 0.53125 0
0.46875 0.53125 0
0.46875 0.5 0
0.5 0.5 0
0.46875 0.53125 0
0.5 0.53125 0
0.4375 0.53125 0
0.46875 0.53125 0
0.4375 0.5625 0
0.46875 0.5625 0
0.46875 0.53125 0
0.5 0.53125 0
0.46875 0.5625 0
0.5 0.5625 0
0.375 0.5625 0
0.40625 0.5625 0
0.375 0.59375 0
0.40625 0.59375 0
0.40625 0.5625 0
0.4375 0.5625 0
0.40625 0.59375 0
0.4375 0.59375 0
0.375 0.59375 0
0.40625 0.59375 0
0.375 0.625 0
0.40625 0.625 0
0.40625 0.59375 0
0.4375 0.59375 0
0.40625 0.625 0
0.4375 0.625 0
0.4375 0.5625 0
0.46875 0.5625 0
0.4375 0.59375 0
0.46875 0.59375 0
0.46875 0.5625 0
0.5 0.5625 0
0.46875 0.59375 0
0.5 0.59375 0
0.4375 0.59375 0
0.46875 0.59375 0
0.4375 0.625 0
0.46875 0.625 0
0.46875 0.59375 0
0.5 0.59375 0
0.46875 0.625 0
0.5 0.625 0
0.25 0.625 0
0.28125 0.625 0
0.25 0.65625 0
0.28125 0.65625 0
0.28125 0.625 0
0.3125 0.625 0
0.28125 0.65625 0
0.3125 0.65625 0
0.25 0.65625 0
0.28125 0.65625 0
0.25 0.6875 0
0.28125 0.6875 0
0.28125 0.65625 0
0.3125 0.65625 0
0.28125 0.6875 0
0.3125 0.6875 0
0.3125 0.625 0
0.34375 0.625 0
0.3125 0.65625 0
0.34375 0.65625 0
0.34375 0.625 0
0.375 0.625 0
0.34375 0.65625 0
0.375 0.65625 0
0.3125 0.65625 0
0.34375 0.65625 0
0.3125 0.6875 0
0.34375 0.6875 0
0.34375 0.65625 0
0.375 0.65625 0
0.34375 0.6875 0
0.375 0.6875 0
0.25 0.6875 0
0.28125 0.6875 0
0.25 0.71875 0
0.28125 0.71875 0
0.28125 0.6875 0
0.3125 0.6875 0
0.28125 0.71875 0
0.3125 0.71875 0
0.25 0.71875 0
0.28125 0.71875 0
0.25 0.75 0
0.28125 0.75 0
0.28125 0.71875 0
0.3125 0.71875 0
0.28125 0.75 0
0.3125 0.75 0
0.3125 0.6875 0
0.34375 0.6875 0
0.3125 0.71875 0
0.34375 0.71875 0
0.34375 0.6875 0
0.375 0.6875 0
0.34375 0.71875 0
0.375 0.71875 0
0.3125 0.71875 0
0.34375 0.71875 0
0.3125 0.75 0
0.34375 0.75 0
0.34375 0.71875 0
0.375 0.71875 0
0.34375 0.75 0
0.375 0.75 0
0.375 0.625 0
0.40625 0.625 0
0.375 0.65625 0
0.40625 0.65625 0
0.40625 0.625 0
0.4375 0.625 0
0.40625 0.65625 0
0.4375 0.65625 0
0.375 0.65625 0
0.40625 0.65625 0
0.375 0.6875 0
0.40625 0.6875 0
0.40625 0.65625 0
0.4375 0.65625 0
0.40625 0.6875 0
0.4375 0.6875 0
0.4375 0.625 0
0.46875 0.625 0
0.4375 0.65625 0
0.46875 0.65625 0
0.46875 0.625 0
0.5 0.625 0
0.46875 0.65625 0
0.5 0.65625 0
0.4375 0.65625 0
0.46875 0.65625 0
0.4375 0.6875 0
0.46875 0.6875 0
0.46875 0.65625 0
0.5 0.65625 0
0.46875 0.6875 0
0.5 0.6875 0
0.375 0.6875 0
0.40625 0.6875 0
0.375 0.71875 0
0.40625 0.71875 0
0.40625 0.6875 0
0.4375 0.6875 0
0.40625 0.71875 0
0.4375 0.71875 0
0.375 0.71875 0
0.40625 0.71875 0
0.375 0.75 0
0.40625 0.75 0
0.40625 0.71875 0
0.4375 0.71875 0
0.40625 0.75 0
0.4375 0.75 0
0.4375 0.6875 0
0.46875 0.6875 0
0.4375 0.71875 0
0.46875 0.71875 0
0.46875 0.6875 0
0.5 0.6875 0
0.46875 0.71875 0
0.5 0.71875 0
0.4375 0.71875 0
0.46875 0.71875 0
0.4375 0.75 0
0.46875 0.75 0
0.46875 0.71875 0
0.5 0.71875 0
0.46875 0.75 0
0.5 0.75 0
0 0.75 0
0.03125 0.75 0
0 0.78125 0
0.03125 0.78125 0
0.03125 0.75 0
0.0625 0.75 0
0.03125 0.78125 0
0.0625 0.78125 0
0 0.78125 0
0.03125 0.78125 0
0 0.8125 0
0.03125 0.8125 0
0.03125 0.78125 0
0.0625 0.78125 0
0.03125 0.8125 0
0.0625 0.8125 0
0.0625 0.75 0
0.09375 0.75 0
0.0625 0.78125 0
0.09375 0.78125 0
0.09375 0.75 0
0.125 0.75 0
0.09375 0.78125 0
0.125 0.78125 0
0.0625 0.78125 0
0.09375 0.78125 0
0.0625 0.8125 0
0.09375 0.8125 0
0.09375 0.78125 0
0.125 0.78125 0
0.09375 0.8125 0
0.125 0.8125 0
0 0.8125 0
0.03125 0.8125 0
0 0.84375 0
0.03125 0.84375 0
0.03125 0.8125 0
0.0625 0.8125 0
0.03125 0.84375 0
0.0625 0.84375 0
0 0.84375 0
0.03125 0.84375 0
0 0.875 0
0.03125 0.875 0
0.03125 0.84375 0
0.0625 0.84375 0
0.03125 0.875 0
0.0625 0.875 0
0.0625 0.8125 0
0.09375 0.8125 0
0.0625 0.84375 0
0.09375 0.84375 0
0.09375 0.8125 0
0.125 0.8125 0
0.09375 0.84375 0
0.125 0.84375 0
0.0625 0.84375 0
0.09375 0.84375 0
0.0625 0.875 0
0.09375 0.875 0
0.09375 0.84375 0
0.125 0.84375 0
0.09375 0.875 0
0.125 0.875 0
0.125 0.75 0
0.15625 0.75 0
0.125 0.78125 0
0.15625 0.78125 0
0.15625 0.75 0
0.1875 0.75 0
0.15625 0.78125 0
0.1875 0.78125 0
0.125 0.78125 0
0.15625 0.78125 0
0.125 0.8125 0
0.15625 0.8125 0
0.15625 0.78125 0
0.1875 0.78125 0
0.15625 0.8125 0
0.1875 0.8125 0
0.1875 0.75 0
0.21875 0.75 0
0.1875 0.78125 0
0.21875 0.78125 0
0.21875 0.75 0
0.25 0.75 0
0.21875 0.78125 0
0.25 0.78125 0
0.1875 0.78125 0
0.21875 0.78125 0
0.1875 0.8125 0
0.21875 0.8125 0
0.21875 0.78125 0
0.25 0.78125 0
0.21875 0.8125 0
0.25 0.8125 0
0.125 0.8125 0
0.15625 0.8125 0
0.125 0.84375 0
0.15625 0.84375 0
0.15625 0.8125 0
[...]
POINT_DATA 4096
SCALARS State_InstatPDEProblemContainer_0 double 1
LOOKUP_TABLE default
-0.000400159 -0.000400156 -0.000428196 -0.000428225 -0.000400156 -0.000400148 -0.000428225 -0.000428312 -0.000428196 -0.000428225 -0.000456125 -0.000456183 -0.000428225 -0.000428312 -0.000456183 -0.000456358 -0.000400148 -0.000400135 -0.000428312 -0.00042846 -0.000400135 -0.000400116 -0.00042846 -0.000428675 -0.000428312 -0.00042846 -0.000456358 -0.000456657 -0.00042846 -0.000428675 -0.000456657 -0.000457092 -0.000456125 -0.000456183 -0.000483831 -0.000483914 -0.000456183 -0.000456358 -0.000483914 -0.000484166 -0.000483831 -0.000483914 -0.000511211 -0.000511315 -0.000483914 -0.000484166 -0.000511315 -0.000511629 -0.000456358 -0.000456657 -0.000484166 -0.000484597 -0.000456657 -0.000457092 -0.000484597 -0.00048522 -0.000484166 -0.000484597 -0.000511629 -0.000512162 -0.000484597 -0.00048522 -0.000512162 -0.000512931 -0.000400116 -0.00040009 -0.000428675 -0.000428968 -0.00040009 -0.000400058 -0.000428968 -0.000429353 -0.000428675 -0.000428968 -0.000457092 -0.000457681 -0.000428968 -0.000429353 -0.000457681 -0.000458449 -0.000400058 -0.000400017 -0.000429353 -0.00042985 -0.000400017 -0.000399967 -0.00042985 -0.00043049 -0.000429353 -0.00042985 -0.000458449 -0.000459435 -0.00042985 -0.00043049 -0.000459435 -0.000460692 -0.000457092 -0.000457681 -0.00048522 -0.000486058 -0.000457681 -0.000458449 -0.000486058 -0.000487145 -0.00048522 -0.000486058 -0.000512931 -0.000513959 -0.000486058 -0.000487145 -0.000513959 -0.000515279 -0.000458449 -0.000459435 -0.000487145 -0.000488526 -0.000459435 -0.000460692 -0.000488526 -0.000490265 -0.000487145 -0.000488526 -0.000515279 -0.000516937 -0.000488526 -0.000490265 -0.000516937 -0.000518991 -0.000511211 -0.000511315 -0.000538179 -0.000538298 -0.000511315 -0.000511629 -0.000538298 -0.000538655 -0.000538179 -0.000538298 -0.000564666 -0.000564792 -0.000538298 -0.000538655 -0.000564792 -0.000565174 -0.000511629 -0.000512162 -0.000538655 -0.000539259 -0.000512162 -0.000512931 -0.000539259 -0.000540126 -0.000538655 -0.000539259 -0.000565174 -0.000565817 -0.000539259 -0.000540126 -0.000565817 -0.000566734 -0.000564666 -0.000564792 -0.000590619 -0.000590748 -0.000564792 -0.000565174 -0.000590748 -0.000591137 -0.000590619 -0.000590748 -0.000616009 -0.000616135 -0.000590748 -0.000591137 -0.000616135 -0.000616515 -0.000565174 -0.000565817 -0.000591137 -0.000591789 -0.000565817 -0.000566734 -0.000591789 -0.000592713 -0.000591137 -0.000591789 -0.000616515 -0.00061715 -0.000591789 -0.000592713 -0.00061715 -0.000618044 -0.000512931 -0.000513959 -0.000540126 -0.000541276 -0.000513959 -0.000515279 -0.000541276 -0.000542738 -0.000540126 -0.000541276 -0.000566734 -0.000567941 -0.000541276 -0.000542738 -0.000567941 -0.000569458 -0.000515279 -0.000516937 -0.000542738 -0.000544549 -0.000516937 -0.000518991 -0.000544549 -0.000546753 -0.000542738 -0.000544549 -0.000569458 -0.000571309 -0.000544549 -0.000546753 -0.000571309 -0.000573522 -0.000566734 -0.000567941 -0.000592713 -0.000593918 -0.000567941 -0.000569458 -0.000593918 -0.000595415 -0.000592713 -0.000593918 -0.000618044 -0.0006192 -0.000593918 -0.000595415 -0.0006192 -0.00062062 -0.000569458 -0.000571309 -0.000595415 -0.000597216 -0.000571309 -0.000573522 -0.000597216 -0.00059933 -0.000595415 -0.000597216 -0.00062062 -0.000622303 -0.000597216 -0.00059933 -0.000622303 -0.000624245 -0.000399967 -0.000399906 -0.00043049 -0.000431319 -0.000399906 -0.000399831 -0.000431319 -0.00043241 -0.00043049 -0.000431319 -0.000460692 -0.000462301 -0.000431319 -0.00043241 -0.000462301 -0.000464378 -0.000399831 -0.000399738 -0.00043241 -0.000433879 -0.000399738 -0.00039962 -0.000433879 -0.000435928 -0.00043241 -0.000433879 -0.000464378 -0.000467106 -0.000433879 -0.000435928 -0.000467106 -0.000470765 -0.000460692 -0.000462301 -0.000490265 -0.000492451 -0.000462301 -0.000464378 -0.000492451 -0.000495207 -0.000490265 -0.000492451 -0.000518991 -0.000521519 -0.000492451 -0.000495207 -0.000521519 -0.000524616 -0.000464378 -0.000467106 -0.000495207 -0.000498702 -0.000467106 -0.000470765 -0.000498702 -0.00050316 -0.000495207 -0.000498702 -0.000524616 -0.000528393 -0.000498702 -0.00050316 -0.000528393 -0.000532955 -0.00039962 -0.000399463 -0.000435928 -0.000438936 -0.000399463 -0.000399236 -0.000438936 -0.00044372 -0.000435928 -0.000438936 -0.000470765 -0.000475815 -0.000438936 -0.00044372 -0.000475815 -0.000482944 -0.000399236 -0.00039881 -0.00044372 -0.000452153 -0.00039881 -0.000398212 -0.000452153 -0.000470577 -0.00044372 -0.000452153 -0.000482944 -0.00049319 -0.000452153 -0.000470577 -0.00049319 -0.000504 -0.000470765 -0.000475815 -0.00050316 -0.00050884 -0.000475815 -0.000482944 -0.00050884 -0.000515958 -0.00050316 -0.00050884 -0.000532955 -0.000538354 -0.00050884 -0.000515958 -0.000538354 -0.000544426 -0.000482944 -0.00049319 -0.000515958 -0.000523981 -0.00049319 -0.000504 -0.000523981 -0.000532215 -0.000515958 -0.000523981 -0.000544426 -0.000550796 -0.000523981 -0.000532215 -0.000550796 -0.000556917 -0.000518991 -0.000521519 -0.000546753 -0.000549404 -0.000521519 -0.000524616 -0.000549404 -0.000552554 -0.000546753 -0.000549404 -0.000573522 -0.000576121 -0.000549404 -0.000552554 -0.000576121 -0.000579121 -0.000524616 -0.000528393 -0.000552554 -0.000556249 -0.000528393 -0.000532955 -0.000556249 -0.000560496 -0.000552554 -0.000556249 -0.000579121 -0.000582515 -0.000556249 -0.000560496 -0.000582515 -0.000586255 -0.000573522 -0.000576121 -0.00059933 -0.000601757 -0.000576121 -0.000579121 -0.000601757 -0.000604484 -0.00059933 -0.000601757 -0.000624245 -0.000626428 -0.000601757 -0.000604484 -0.000626428 -0.000628821 -0.000579121 -0.000582515 -0.000604484 -0.000607473 -0.000582515 -0.000586255 -0.000607473 -0.000610654 -0.000604484 -0.000607473 -0.000628821 -0.000631374 -0.000607473 -0.000610654 -0.000631374 -0.000634011 -0.000532955 -0.000538354 -0.000560496 -0.000565217 -0.000538354 -0.000544426 -0.000565217 -0.000570219 -0.000560496 -0.000565217 -0.000586255 -0.000590228 -0.000565217 -0.000570219 -0.000590228 -0.000594258 -0.000544426 -0.000550796 -0.000570219 -0.000575195 -0.000550796 -0.000556917 -0.000575195 -0.000579876 -0.000570219 -0.000575195 -0.000594258 -0.000598141 -0.000575195 -0.000579876 -0.000598141 -0.000601721 -0.000586255 -0.000590228 -0.000610654 -0.000613915 -0.000590228 -0.000594258 -0.000613915 -0.000617117 -0.000610654 -0.000613915 -0.000634011 -0.000636635 -0.000613915 -0.000617117 -0.000636635 -0.000639142 -0.000594258 -0.000598141 -0.000617117 -0.000620123 -0.000598141 -0.000601721 -0.000620123 -0.000622845 -0.000617117 -0.000620123 -0.000639142 -0.00064144 -0.000620123 -0.000622845 -0.00064144 -0.000643478 -0.000616009 -0.000616135 -0.00064082 -0.000640939 -0.000616135 -0.000616515 -0.000640939 -0.000641298 -0.00064082 -0.000640939 -0.000665055 -0.000665164 -0.000640939 -0.000641298 -0.000665164 -0.000665491 -0.000616515 -0.00061715 -0.000641298 -0.000641895 -0.00061715 -0.000618044 -0.000641895 -0.00064273 -0.000641298 -0.000641895 -0.000665491 -0.000666033 -0.000641895 -0.00064273 -0.000666033 -0.000666787 -0.000665055 -0.000665164 -0.000688728 -0.000688825 -0.000665164 -0.000665491 -0.000688825 -0.000689112 -0.000688728 -0.000688825 -0.000711868 -0.000711949 -0.000688825 -0.000689112 -0.000711949 -0.000712192 -0.000665491 -0.000666033 -0.000689112 -0.000689588 -0.000666033 -0.000666787 -0.000689588 -0.000690246 -0.000689112 -0.000689588 -0.000712192 -0.000712591 -0.000689588 -0.000690246 -0.000712591 -0.000713141 -0.000618044 -0.0006192 -0.00064273 -0.0006438 -0.0006192 -0.00062062 -0.0006438 -0.000645101 -0.00064273 -0.0006438 -0.000666787 -0.000667747 -0.0006438 -0.000645101 -0.000667747 -0.000668901 -0.00062062 -0.000622303 -0.000645101 -0.000646623 -0.000622303 -0.000624245 -0.000646623 -0.000648349 -0.000645101 -0.000646623 -0.000668901 -0.000670234 -0.000646623 -0.000648349 -0.000670234 -0.000671724 -0.000666787 -0.000667747 -0.000690246 -0.000691077 -0.000667747 -0.000668901 -0.000691077 -0.000692067 -0.000690246 -0.000691077 -0.000713141 -0.000713831 -0.000691077 -0.000692067 -0.000713831 -0.000714647 -0.000668901 -0.000670234 -0.000692067 -0.000693198 -0.000670234 -0.000671724 -0.000693198 -0.000694444 -0.000692067 -0.000693198 -0.000714647 -0.000715569 -0.000693198 -0.000694444 -0.000715569 -0.000716572 -0.000711868 -0.000711949 -0.000734512 -0.000734576 -0.000711949 -0.000712192 -0.000734576 -0.000734768 -0.000734512 -0.000734576 -0.000756708 -0.000756753 -0.000734576 -0.000734768 -0.000756753 -0.000756888 -0.000712192 -0.000712591 -0.000734768 -0.000735083 -0.000712591 -0.000713141 -0.000735083 -0.000735515 -0.000734768 -0.000735083 -0.000756888 -0.00075711 -0.000735083 -0.000735515 -0.00075711 -0.000757414 -0.000756708 -0.000756753 -0.000778514 -0.000778538 -0.000756753 -0.000756888 -0.000778538 -0.00077861 -0.000778514 -0.000778538 -0.0008 -0.0008 -0.000778538 -0.00077861 -0.0008 -0.0008 -0.000756888 -0.00075711 -0.00077861 -0.000778728 -0.00075711 -0.000757414 -0.000778728 -0.00077889 -0.00077861 -0.000778728 -0.0008 -0.0008 -0.000778728 -0.00077889 -0.0008 -0.0008 -0.000713141 -0.000713831 -0.000735515 -0.000736054 -0.000713831 -0.000714647 -0.000736054 -0.000736688 -0.000735515 -0.000736054 -0.000757414 -0.000757792 -0.000736054 -0.000736688 -0.000757792 -0.000758232 -0.000714647 -0.000715569 -0.000736688 -0.000737397 -0.000715569 -0.000716572 -0.000737397 -0.00073816 -0.000736688 -0.000737397 -0.000758232 -0.000758722 -0.000737397 -0.00073816 -0.000758722 -0.000759245 -0.000757414 -0.000757792 -0.00077889 -0.00077909 -0.000757792 -0.000758232 -0.00077909 -0.000779323 -0.00077889 -0.00077909 -0.0008 -0.0008 -0.00077909 -0.000779323 -0.0008 -0.0008 -0.000758232 -0.000758722 -0.000779323 -0.00077958 -0.000758722 -0.000759245 -0.00077958 -0.000779853 -0.000779323 -0.00077958 -0.0008 -0.0008 -0.00077958 -0.000779853 -0.0008 -0.0008 -0.000624245 -0.000626428 -0.000648349 -0.000650252 -0.000626428 -0.000628821 -0.000650252 -0.000652294 -0.000648349 -0.000650252 -0.000671724 -0.000673337 -0.000650252 -0.000652294 -0.000673337 -0.000675033 -0.000628821 -0.000631374 -0.000652294 -0.000654418 -0.000631374 -0.000634011 -0.000654418 -0.000656556 -0.000652294 -0.000654418 -0.000675033 -0.000676759 -0.000654418 -0.000656556 -0.000676759 -0.000678453 -0.000671724 -0.000673337 -0.000694444 -0.000695772 -0.000673337 -0.000675033 -0.000695772 -0.000697141 -0.000694444 -0.000695772 -0.000716572 -0.000717626 -0.000695772 -0.000697141 -0.000717626 -0.000718693 -0.000675033 -0.000676759 -0.000697141 -0.000698505 -0.000676759 -0.000678453 -0.000698505 -0.000699812 -0.000697141 -0.000698505 -0.000718693 -0.000719734 -0.000698505 -0.000699812 -0.000719734 -0.000720706 -0.000634011 -0.000636635 -0.000656556 -0.000658628 -0.000636635 -0.000639142 -0.000658628 -0.000660555 -0.000656556 -0.000658628 -0.000678453 -0.000680052 -0.000658628 -0.000660555 -0.000680052 -0.000681499 -0.000639142 -0.00064144 -0.000660555 -0.000662277 -0.00064144 -0.000643478 -0.000662277 -0.000663762 -0.000660555 -0.000662277 -0.000681499 -0.00068275 -0.000662277 -0.000663762 -0.00068275 -0.00068379 -0.000678453 -0.000680052 -0.000699812 -0.000701012 -0.000680052 -0.000681499 -0.000701012 -0.000702062 -0.000699812 -0.000701012 -0.000720706 -0.000721571 -0.000701012 -0.000702062 -0.000721571 -0.000722297 -0.000681499 -0.00068275 -0.000702062 -0.000702933 -0.00068275 -0.00068379 -0.000702933 -0.000703616 -0.000702062 -0.000702933 -0.000722297 -0.000722865 -0.000702933 -0.000703616 -0.000722865 -0.00072327 -0.000716572 -0.000717626 -0.00073816 -0.000738951 -0.000717626 -0.000718693 -0.000738951 -0.000739738 -0.00073816 -0.000738951 -0.000759245 -0.000759779 -0.000738951 -0.000739738 -0.000759779 -0.000760304 -0.000718693 -0.000719734 -0.000739738 -0.00074049 -0.000719734 -0.000720706 -0.00074049 -0.000741174 -0.000739738 -0.00074049 -0.000760304 -0.000760794 -0.00074049 -0.000741174 -0.000760794 -0.000761228 -0.000759245 -0.000759779 -0.000779853 -0.000780129 -0.000759779 -0.000760304 -0.000780129 -0.000780396 -0.000779853 -0.000780129 -0.0008 -0.0008 -0.000780129 -0.000780396 -0.0008 -0.0008 -0.000760304 -0.000760794 -0.000780396 -0.000780641 -0.000760794 -0.000761228 -0.000780641 -0.000780851 -0.000780396 -0.000780641 -0.0008 -0.0008 -0.000780641 -0.000780851 -0.0008 -0.0008 -0.000720706 -0.000721571 -0.000741174 -0.000741761 -0.000721571 -0.000722297 -0.000741761 -0.000742227 -0.000741174 -0.000741761 -0.000761228 -0.000761583 -0.000741761 -0.000742227 -0.000761583 -0.000761846 -0.000722297 -0.000722865 -0.000742227 -0.00074256 -0.000722865 -0.00072327 -0.00074256 -0.000742759 -0.000742227 -0.00074256 -0.000761846 -0.000762008 -0.00074256 -0.000742759 -0.000762008 -0.00076207 -0.000761228 -0.000761583 -0.000780851 -0.000781015 -0.000761583 -0.000761846 -0.000781015 -0.000781125 -0.000780851 -0.000781015 -0.0008 -0.0008 -0.000781015 -0.000781125 -0.0008 -0.0008 -0.000761846 -0.000762008 -0.000781125 -0.000781176 -0.000762008 -0.00076207 -0.000781176 -0.00078117 -0.000781125 -0.000781176 -0.0008 -0.0008 -0.000781176 -0.00078117 -0.0008 -0.0008 -0.000398212 -0.000459446 -0.000470577 -0.000485422 -0.000459446 -0.000495771 -0.000485422 -0.000505825 -0.000470577 -0.000485422 -0.000504 -0.000515239 -0.000485422 -0.000505825 -0.000515239 -0.000526049 -0.000495771 -0.00052044 -0.000505825 -0.000525036 -0.00052044 -0.000539102 -0.000525036 -0.000541439 -0.000505825 -0.000525036 -0.000526049 -0.000538411 -0.000525036 -0.000541439 -0.000538411 -0.000550698 -0.000504 -0.000515239 -0.000532215 -0.00053982 -0.000515239 -0.000526049 -0.00053982 -0.000547469 -0.000532215 -0.00053982 -0.000556917 -0.000562623 -0.00053982 -0.000547469 -0.000562623 -0.000568121 -0.000526049 -0.000538411 -0.000547469 -0.000555576 -0.000538411 -0.000550698 -0.000555576 -0.000564233 -0.000547469 -0.000555576 -0.000568121 -0.000573863 -0.000555576 -0.000564233 -0.000573863 -0.000579972 -0.000539102 -0.000553966 -0.000541439 -0.000555233 -0.000553966 -0.000566124 -0.000555233 -0.00056684 -0.000541439 -0.000555233 -0.000550698 -0.000562009 -0.000555233 -0.00056684 -0.000562009 -0.000572064 -0.000566124 -0.000576195 -0.00056684 -0.000576623 -0.000576195 -0.000584576 -0.000576623 -0.00058486 -0.00056684 -0.000576623 -0.000572064 -0.00058084 -0.000576623 -0.00058486 -0.00058084 -0.000588408 -0.000550698 -0.000562009 -0.000564233 -0.000572838 -0.000562009 -0.000572064 -0.000572838 -0.000580947 -0.000564233 -0.000572838 -0.000579972 -0.000586296 -0.000572838 -0.000580947 -0.000586296 -0.000592537 -0.000572064 -0.00058084 -0.000580947 -0.00058833 -0.00058084 -0.000588408 -0.00058833 -0.000594891 -0.000580947 -0.00058833 -0.000592537 -0.000598448 -0.00058833 -0.000594891 -0.000598448 -0.000603869 -0.000556917 -0.000562623 -0.000579876 -0.000584173 -0.000562623 -0.000568121 -0.000584173 -0.000588263 -0.000579876 -0.000584173 -0.000601721 -0.000604974 -0.000584173 -0.000588263 -0.000604974 -0.000608015 -0.000568121 -0.000573863 -0.000588263 -0.000592408 -0.000573863 -0.000579972 -0.000592408 -0.000596782 -0.000588263 -0.000592408 -0.000608015 -0.000611028 -0.000592408 -0.000596782 -0.000611028 -0.000614157 -0.000601721 -0.000604974 -0.000622845 -0.000625282 -0.000604974 -0.000608015 -0.000625282 -0.000627516 -0.000622845 -0.000625282 -0.000643478 -0.000645263 -0.000625282 -0.000627516 -0.000645263 -0.00064686 -0.000608015 -0.000611028 -0.000627516 -0.000629678 -0.000611028 -0.000614157 -0.000629678 -0.000631884 -0.000627516 -0.000629678 -0.00064686 -0.000648364 -0.000629678 -0.000631884 -0.000648364 -0.000649867 -0.000579972 -0.000586296 -0.000596782 -0.000601368 -0.000586296 -0.000592537 -0.000601368 -0.000606028 -0.000596782 -0.000601368 -0.000614157 -0.000617445 -0.000601368 -0.000606028 -0.000617445 -0.000620843 -0.000592537 -0.000598448 -0.000606028 -0.000610585 -0.000598448 -0.000603869 -0.000610585 -0.000614887 -0.000606028 -0.000610585 -0.000620843 -0.000624245 -0.000610585 -0.000614887 -0.000624245 -0.000627536 -0.000614157 -0.000617445 -0.000631884 -0.000634194 -0.000617445 -0.000620843 -0.000634194 -0.000636603 -0.000631884 -0.000634194 -0.000649867 -0.000651431 -0.000634194 -0.000636603 -0.000651431 -0.000653073 -0.000620843 -0.000624245 -0.000636603 -0.00063906 -0.000624245 -0.000627536 -0.00063906 -0.000641488 -0.000636603 -0.00063906 -0.000653073 -0.000654773 -0.00063906 -0.000641488 -0.000654773 -0.000656488 -0.000584576 -0.000591536 -0.00058486 -0.000591762 -0.000591536 -0.000597272 -0.000591762 -0.000597487 -0.00058486 -0.000591762 -0.000588408 -0.000594856 -0.000591762 -0.000597487 -0.000594856 -0.000600271 -0.000597272 -0.000601928 -0.000597487 -0.000602158 -0.000601928 -0.000605609 -0.000602158 -0.000605868 -0.000597487 -0.000602158 -0.000600271 -0.00060473 -0.000602158 -0.000605868 -0.00060473 -0.000608296 -0.000588408 -0.000594856 -0.000594891 -0.000600607 -0.000594856 -0.000600271 -0.000600607 -0.000605487 -0.000594891 -0.000600607 -0.000603869 -0.000608709 -0.000600607 -0.000605487 -0.000608709 -0.000612919 -0.000600271 -0.00060473 -0.000605487 -0.000609556 -0.00060473 -0.000608296 -0.000609556 -0.000612839 -0.000605487 -0.000609556 -0.000612919 -0.00061648 -0.000609556 -0.000612839 -0.00061648 -0.000619386 -0.000605609 -0.000608398 -0.000605868 -0.000608686 -0.000608398 -0.000610351 -0.000608686 -0.000610664 -0.000605868 -0.000608686 -0.000608296 -0.000611019 -0.000608686 -0.000610664 -0.000611019 -0.000612937 -0.000610351 -0.000611507 -0.000610664 -0.000611837 -0.000611507 -0.00061189 -0.000611837 -0.000612226 -0.000610664 -0.000611837 -0.000612937 -0.000614077 -0.000611837 -0.000612226 -0.000614077 -0.000614456 -0.000608296 -0.000611019 -0.000612839 -0.000615364 -0.000611019 -0.000612937 -0.000615364 -0.000617151 -0.000612839 -0.000615364 -0.000619386 -0.000621638 -0.000615364 -0.000617151 -0.000621638 -0.000623242 -0.000612937 -0.000614077 -0.000617151 -0.000618217 -0.000614077 -0.000614456 -0.000618217 -0.000618572 -0.000617151 -0.000618217 -0.000623242 -0.000624202 -0.000618217 -0.000618572 -0.000624202 -0.000624522 -0.000603869 -0.000608709 -0.000614887 -0.00061882 -0.000608709 -0.000612919 -0.00061882 -0.00062231 -0.000614887 -0.00061882 -0.000627536 -0.000630615 -0.00061882 -0.00062231 -0.000630615 -0.000633399 -0.000612919 -0.00061648 -0.00062231 -0.000625308 -0.00061648 -0.000619386 -0.000625308 -0.000627784 -0.00062231 -0.000625308 -0.000633399 -0.000635829 -0.000625308 -0.000627784 -0.000635829 -0.000637861 -0.000627536 -0.000630615 -0.000641488 -0.000643806 -0.000630615 -0.000633399 -0.000643806 -0.000645942 -0.000641488 -0.000643806 -0.000656488 -0.000658159 -0.000643806 -0.000645942 -0.000658159 -0.000659728 -0.000633399 -0.000635829 -0.000645942 -0.000647837 -0.000635829 -0.000637861 -0.000647837 -0.000649442 -0.000645942 -0.000647837 -0.000659728 -0.000661143 -0.000647837 -0.000649442 -0.000661143 -0.000662358 -0.000619386 -0.000621638 -0.000627784 -0.00062972 -0.000621638 -0.000623242 -0.00062972 -0.000631108 -0.000627784 -0.00062972 -0.000637861 -0.000639466 -0.00062972 -0.000631108 -0.000639466 -0.000640625 -0.000623242 -0.000624202 -0.000631108 -0.000631943 -0.000624202 -0.000624522 -0.000631943 -0.000632221 -0.000631108 -0.000631943 -0.000640625 -0.000641324 -0.000631943 -0.000632221 -0.000641324 -0.000641558 -0.000637861 -0.000639466 -0.000649442 -0.000650723 -0.000639466 -0.000640625 -0.000650723 -0.000651654 -0.000649442 -0.000650723 -0.000662358 -0.000663339 -0.000650723 -0.000651654 -0.000663339 -0.000664058 -0.000640625 -0.000641324 -0.000651654 -0.000652219 -0.000641324 -0.000641558 -0.000652219 -0.000652409 -0.000651654 -0.000652219 -0.000664058 -0.000664497 -0.000652219 -0.000652409 -0.000664497 -0.000664644 -0.000643478 -0.000645263 -0.000663762 -0.000665024 -0.000645263 -0.00064686 -0.000665024 -0.000666113 -0.000663762 -0.000665024 -0.00068379 -0.000684632 -0.000665024 -0.000666113 -0.000684632 -0.000685317 -0.00064686 -0.000648364 -0.000666113 -0.000667101 -0.000648364 -0.000649867 -0.000