# vtk DataFile Version 3.0
#This file was generated by the deal.II library on 2018/7/10 at 10:46:59
ASCII
DATASET UNSTRUCTURED_GRID

POINTS 4096 double
0 0.5 0
0.03125 0.5 0
0 0.53125 0
0.03125 0.53125 0
0.03125 0.5 0
0.0625 0.5 0
0.03125 0.53125 0
0.0625 0.53125 0
0 0.53125 0
0.03125 0.53125 0
0 0.5625 0
0.03125 0.5625 0
0.03125 0.53125 0
0.0625 0.53125 0
0.03125 0.5625 0
0.0625 0.5625 0
0.0625 0.5 0
0.09375 0.5 0
0.0625 0.53125 0
0.09375 0.53125 0
0.09375 0.5 0
0.125 0.5 0
0.09375 0.53125 0
0.125 0.53125 0
0.0625 0.53125 0
0.09375 0.53125 0
0.0625 0.5625 0
0.09375 0.5625 0
0.09375 0.53125 0
0.125 0.53125 0
0.09375 0.5625 0
0.125 0.5625 0
0 0.5625 0
0.03125 0.5625 0
0 0.59375 0
0.03125 0.59375 0
0.03125 0.5625 0
0.0625 0.5625 0
0.03125 0.59375 0
0.0625 0.59375 0
0 0.59375 0
0.03125 0.59375 0
0 0.625 0
0.03125 0.625 0
0.03125 0.59375 0
0.0625 0.59375 0
0.03125 0.625 0
0.0625 0.625 0
0.0625 0.5625 0
0.09375 0.5625 0
0.0625 0.59375 0
0.09375 0.59375 0
0.09375 0.5625 0
0.125 0.5625 0
0.09375 0.59375 0
0.125 0.59375 0
0.0625 0.59375 0
0.09375 0.59375 0
0.0625 0.625 0
0.09375 0.625 0
0.09375 0.59375 0
0.125 0.59375 0
0.09375 0.625 0
0.125 0.625 0
0.125 0.5 0
0.15625 0.5 0
0.125 0.53125 0
0.15625 0.53125 0
0.15625 0.5 0
0.1875 0.5 0
0.15625 0.53125 0
0.1875 0.53125 0
0.125 0.53125 0
0.15625 0.53125 0
0.125 0.5625 0
0.15625 0.5625 0
0.15625 0.53125 0
0.1875 0.53125 0
0.15625 0.5625 0
0.1875 0.5625 0
0.1875 0.5 0
0.21875 0.5 0
0.1875 0.53125 0
0.21875 0.53125 0
0.21875 0.5 0
0.25 0.5 0
0.21875 0.53125 0
0.25 0.53125 0
0.1875 0.53125 0
0.21875 0.53125 0
0.1875 0.5625 0
0.21875 0.5625 0
0.21875 0.53125 0
0.25 0.53125 0
0.21875 0.5625 0
0.25 0.5625 0
0.125 0.5625 0
0.15625 0.5625 0
0.125 0.59375 0
0.15625 0.59375 0
0.15625 0.5625 0
0.1875 0.5625 0
0.15625 0.59375 0
0.1875 0.59375 0
0.125 0.59375 0
0.15625 0.59375 0
0.125 0.625 0
0.15625 0.625 0
0.15625 0.59375 0
0.1875 0.59375 0
0.15625 0.625 0
0.1875 0.625 0
0.1875 0.5625 0
0.21875 0.5625 0
0.1875 0.59375 0
0.21875 0.59375 0
0.21875 0.5625 0
0.25 0.5625 0
0.21875 0.59375 0
0.25 0.59375 0
0.1875 0.59375 0
0.21875 0.59375 0
0.1875 0.625 0
0.21875 0.625 0
0.21875 0.59375 0
0.25 0.59375 0
0.21875 0.625 0
0.25 0.625 0
0 0.625 0
0.03125 0.625 0
0 0.65625 0
0.03125 0.65625 0
0.03125 0.625 0
0.0625 0.625 0
0.03125 0.65625 0
0.0625 0.65625 0
0 0.65625 0
0.03125 0.65625 0
0 0.6875 0
0.03125 0.6875 0
0.03125 0.65625 0
0.0625 0.65625 0
0.03125 0.6875 0
0.0625 0.6875 0
0.0625 0.625 0
0.09375 0.625 0
0.0625 0.65625 0
0.09375 0.65625 0
0.09375 0.625 0
0.125 0.625 0
0.09375 0.65625 0
0.125 0.65625 0
0.0625 0.65625 0
0.09375 0.65625 0
0.0625 0.6875 0
0.09375 0.6875 0
0.09375 0.65625 0
0.125 0.65625 0
0.09375 0.6875 0
0.125 0.6875 0
0 0.6875 0
0.03125 0.6875 0
0 0.71875 0
0.03125 0.71875 0
0.03125 0.6875 0
0.0625 0.6875 0
0.03125 0.71875 0
0.0625 0.71875 0
0 0.71875 0
0.03125 0.71875 0
0 0.75 0
0.03125 0.75 0
0.03125 0.71875 0
0.0625 0.71875 0
0.03125 0.75 0
0.0625 0.75 0
0.0625 0.6875 0
0.09375 0.6875 0
0.0625 0.71875 0
0.09375 0.71875 0
0.09375 0.6875 0
0.125 0.6875 0
0.09375 0.71875 0
0.125 0.71875 0
0.0625 0.71875 0
0.09375 0.71875 0
0.0625 0.75 0
0.09375 0.75 0
0.09375 0.71875 0
0.125 0.71875 0
0.09375 0.75 0
0.125 0.75 0
0.125 0.625 0
0.15625 0.625 0
0.125 0.65625 0
0.15625 0.65625 0
0.15625 0.625 0
0.1875 0.625 0
0.15625 0.65625 0
0.1875 0.65625 0
0.125 0.65625 0
0.15625 0.65625 0
0.125 0.6875 0
0.15625 0.6875 0
0.15625 0.65625 0
0.1875 0.65625 0
0.15625 0.6875 0
0.1875 0.6875 0
0.1875 0.625 0
0.21875 0.625 0
0.1875 0.65625 0
0.21875 0.65625 0
0.21875 0.625 0
0.25 0.625 0
0.21875 0.65625 0
0.25 0.65625 0
0.1875 0.65625 0
0.21875 0.65625 0
0.1875 0.6875 0
0.21875 0.6875 0
0.21875 0.65625 0
0.25 0.65625 0
0.21875 0.6875 0
0.25 0.6875 0
0.125 0.6875 0
0.15625 0.6875 0
0.125 0.71875 0
0.15625 0.71875 0
0.15625 0.6875 0
0.1875 0.6875 0
0.15625 0.71875 0
0.1875 0.71875 0
0.125 0.71875 0
0.15625 0.71875 0
0.125 0.75 0
0.15625 0.75 0
0.15625 0.71875 0
0.1875 0.71875 0
0.15625 0.75 0
0.1875 0.75 0
0.1875 0.6875 0
0.21875 0.6875 0
0.1875 0.71875 0
0.21875 0.71875 0
0.21875 0.6875 0
0.25 0.6875 0
0.21875 0.71875 0
0.25 0.71875 0
0.1875 0.71875 0
0.21875 0.71875 0
0.1875 0.75 0
0.21875 0.75 0
0.21875 0.71875 0
0.25 0.71875 0
0.21875 0.75 0
0.25 0.75 0
0.25 0.5 0
0.28125 0.5 0
0.25 0.53125 0
0.28125 0.53125 0
0.28125 0.5 0
0.3125 0.5 0
0.28125 0.53125 0
0.3125 0.53125 0
0.25 0.53125 0
0.28125 0.53125 0
0.25 0.5625 0
0.28125 0.5625 0
0.28125 0.53125 0
0.3125 0.53125 0
0.28125 0.5625 0
0.3125 0.5625 0
0.3125 0.5 0
0.34375 0.5 0
0.3125 0.53125 0
0.34375 0.53125 0
0.34375 0.5 0
0.375 0.5 0
0.34375 0.53125 0
0.375 0.53125 0
0.3125 0.53125 0
0.34375 0.53125 0
0.3125 0.5625 0
0.34375 0.5625 0
0.34375 0.53125 0
0.375 0.53125 0
0.34375 0.5625 0
0.375 0.5625 0
0.25 0.5625 0
0.28125 0.5625 0
0.25 0.59375 0
0.28125 0.59375 0
0.28125 0.5625 0
0.3125 0.5625 0
0.28125 0.59375 0
0.3125 0.59375 0
0.25 0.59375 0
0.28125 0.59375 0
0.25 0.625 0
0.28125 0.625 0
0.28125 0.59375 0
0.3125 0.59375 0
0.28125 0.625 0
0.3125 0.625 0
0.3125 0.5625 0
0.34375 0.5625 0
0.3125 0.59375 0
0.34375 0.59375 0
0.34375 0.5625 0
0.375 0.5625 0
0.34375 0.59375 0
0.375 0.59375 0
0.3125 0.59375 0
0.34375 0.59375 0
0.3125 0.625 0
0.34375 0.625 0
0.34375 0.59375 0
0.375 0.59375 0
0.34375 0.625 0
0.375 0.625 0
0.375 0.5 0
0.40625 0.5 0
0.375 0.53125 0
0.40625 0.53125 0
0.40625 0.5 0
0.4375 0.5 0
0.40625 0.53125 0
0.4375 0.53125 0
0.375 0.53125 0
0.40625 0.53125 0
0.375 0.5625 0
0.40625 0.5625 0
0.40625 0.53125 0
0.4375 0.53125 0
0.40625 0.5625 0
0.4375 0.5625 0
0.4375 0.5 0
0.46875 0.5 0
0.4375 0.53125 0
0.46875 0.53125 0
0.46875 0.5 0
0.5 0.5 0
0.46875 0.53125 0
0.5 0.53125 0
0.4375 0.53125 0
0.46875 0.53125 0
0.4375 0.5625 0
0.46875 0.5625 0
0.46875 0.53125 0
0.5 0.53125 0
0.46875 0.5625 0
0.5 0.5625 0
0.375 0.5625 0
0.40625 0.5625 0
0.375 0.59375 0
0.40625 0.59375 0
0.40625 0.5625 0
0.4375 0.5625 0
0.40625 0.59375 0
0.4375 0.59375 0
0.375 0.59375 0
0.40625 0.59375 0
0.375 0.625 0
0.40625 0.625 0
0.40625 0.59375 0
0.4375 0.59375 0
0.40625 0.625 0
0.4375 0.625 0
0.4375 0.5625 0
0.46875 0.5625 0
0.4375 0.59375 0
0.46875 0.59375 0
0.46875 0.5625 0
0.5 0.5625 0
0.46875 0.59375 0
0.5 0.59375 0
0.4375 0.59375 0
0.46875 0.59375 0
0.4375 0.625 0
0.46875 0.625 0
0.46875 0.59375 0
0.5 0.59375 0
0.46875 0.625 0
0.5 0.625 0
0.25 0.625 0
0.28125 0.625 0
0.25 0.65625 0
0.28125 0.65625 0
0.28125 0.625 0
0.3125 0.625 0
0.28125 0.65625 0
0.3125 0.65625 0
0.25 0.65625 0
0.28125 0.65625 0
0.25 0.6875 0
0.28125 0.6875 0
0.28125 0.65625 0
0.3125 0.65625 0
0.28125 0.6875 0
0.3125 0.6875 0
0.3125 0.625 0
0.34375 0.625 0
0.3125 0.65625 0
0.34375 0.65625 0
0.34375 0.625 0
0.375 0.625 0
0.34375 0.65625 0
0.375 0.65625 0
0.3125 0.65625 0
0.34375 0.65625 0
0.3125 0.6875 0
0.34375 0.6875 0
0.34375 0.65625 0
0.375 0.65625 0
0.34375 0.6875 0
0.375 0.6875 0
0.25 0.6875 0
0.28125 0.6875 0
0.25 0.71875 0
0.28125 0.71875 0
0.28125 0.6875 0
0.3125 0.6875 0
0.28125 0.71875 0
0.3125 0.71875 0
0.25 0.71875 0
0.28125 0.71875 0
0.25 0.75 0
0.28125 0.75 0
0.28125 0.71875 0
0.3125 0.71875 0
0.28125 0.75 0
0.3125 0.75 0
0.3125 0.6875 0
0.34375 0.6875 0
0.3125 0.71875 0
0.34375 0.71875 0
0.34375 0.6875 0
0.375 0.6875 0
0.34375 0.71875 0
0.375 0.71875 0
0.3125 0.71875 0
0.34375 0.71875 0
0.3125 0.75 0
0.34375 0.75 0
0.34375 0.71875 0
0.375 0.71875 0
0.34375 0.75 0
0.375 0.75 0
0.375 0.625 0
0.40625 0.625 0
0.375 0.65625 0
0.40625 0.65625 0
0.40625 0.625 0
0.4375 0.625 0
0.40625 0.65625 0
0.4375 0.65625 0
0.375 0.65625 0
0.40625 0.65625 0
0.375 0.6875 0
0.40625 0.6875 0
0.40625 0.65625 0
0.4375 0.65625 0
0.40625 0.6875 0
0.4375 0.6875 0
0.4375 0.625 0
0.46875 0.625 0
0.4375 0.65625 0
0.46875 0.65625 0
0.46875 0.625 0
0.5 0.625 0
0.46875 0.65625 0
0.5 0.65625 0
0.4375 0.65625 0
0.46875 0.65625 0
0.4375 0.6875 0
0.46875 0.6875 0
0.46875 0.65625 0
0.5 0.65625 0
0.46875 0.6875 0
0.5 0.6875 0
0.375 0.6875 0
0.40625 0.6875 0
0.375 0.71875 0
0.40625 0.71875 0
0.40625 0.6875 0
0.4375 0.6875 0
0.40625 0.71875 0
0.4375 0.71875 0
0.375 0.71875 0
0.40625 0.71875 0
0.375 0.75 0
0.40625 0.75 0
0.40625 0.71875 0
0.4375 0.71875 0
0.40625 0.75 0
0.4375 0.75 0
0.4375 0.6875 0
0.46875 0.6875 0
0.4375 0.71875 0
0.46875 0.71875 0
0.46875 0.6875 0
0.5 0.6875 0
0.46875 0.71875 0
0.5 0.71875 0
0.4375 0.71875 0
0.46875 0.71875 0
0.4375 0.75 0
0.46875 0.75 0
0.46875 0.71875 0
0.5 0.71875 0
0.46875 0.75 0
0.5 0.75 0
0 0.75 0
0.03125 0.75 0
0 0.78125 0
0.03125 0.78125 0
0.03125 0.75 0
0.0625 0.75 0
0.03125 0.78125 0
0.0625 0.78125 0
0 0.78125 0
0.03125 0.78125 0
0 0.8125 0
0.03125 0.8125 0
0.03125 0.78125 0
0.0625 0.78125 0
0.03125 0.8125 0
0.0625 0.8125 0
0.0625 0.75 0
0.09375 0.75 0
0.0625 0.78125 0
0.09375 0.78125 0
0.09375 0.75 0
0.125 0.75 0
0.09375 0.78125 0
0.125 0.78125 0
0.0625 0.78125 0
0.09375 0.78125 0
0.0625 0.8125 0
0.09375 0.8125 0
0.09375 0.78125 0
0.125 0.78125 0
0.09375 0.8125 0
0.125 0.8125 0
0 0.8125 0
0.03125 0.8125 0
0 0.84375 0
0.03125 0.84375 0
0.03125 0.8125 0
0.0625 0.8125 0
0.03125 0.84375 0
0.0625 0.84375 0
0 0.84375 0
0.03125 0.84375 0
0 0.875 0
0.03125 0.875 0
0.03125 0.84375 0
0.0625 0.84375 0
0.03125 0.875 0
0.0625 0.875 0
0.0625 0.8125 0
0.09375 0.8125 0
0.0625 0.84375 0
0.09375 0.84375 0
0.09375 0.8125 0
0.125 0.8125 0
0.09375 0.84375 0
0.125 0.84375 0
0.0625 0.84375 0
0.09375 0.84375 0
0.0625 0.875 0
0.09375 0.875 0
0.09375 0.84375 0
0.125 0.84375 0
0.09375 0.875 0
0.125 0.875 0
0.125 0.75 0
0.15625 0.75 0
0.125 0.78125 0
0.15625 0.78125 0
0.15625 0.75 0
0.1875 0.75 0
0.15625 0.78125 0
0.1875 0.78125 0
0.125 0.78125 0
0.15625 0.78125 0
0.125 0.8125 0
0.15625 0.8125 0
0.15625 0.78125 0
0.1875 0.78125 0
0.15625 0.8125 0
0.1875 0.8125 0
0.1875 0.75 0
0.21875 0.75 0
0.1875 0.78125 0
0.21875 0.78125 0
0.21875 0.75 0
0.25 0.75 0
0.21875 0.78125 0
0.25 0.78125 0
0.1875 0.78125 0
0.21875 0.78125 0
0.1875 0.8125 0
0.21875 0.8125 0
0.21875 0.78125 0
0.25 0.78125 0
0.21875 0.8125 0
0.25 0.8125 0
0.125 0.8125 0
0.15625 0.8125 0
0.125 0.84375 0
0.15625 0.84375 0
0.15625 0.8125 0
[...]
POINT_DATA 4096
SCALARS State_InstatPDEProblemContainer_0 double 1
LOOKUP_TABLE default
-0.00145896 -0.00145853 -0.00156083 -0.00156052 -0.00145853 -0.00145813 -0.00156052 -0.00156047 -0.00156083 -0.00156052 -0.00166219 -0.001662 -0.00156052 -0.00156047 -0.001662 -0.00166227 -0.00145813 -0.00145774 -0.00156047 -0.00156068 -0.00145774 -0.00145737 -0.00156068 -0.00156116 -0.00156047 -0.00156068 -0.00166227 -0.00166304 -0.00156068 -0.00156116 -0.00166304 -0.00166433 -0.00166219 -0.001662 -0.00176261 -0.00176252 -0.001662 -0.00166227 -0.00176252 -0.00176309 -0.00176261 -0.00176252 -0.00186172 -0.00186173 -0.00176252 -0.00176309 -0.00186173 -0.00186253 -0.00166227 -0.00166304 -0.00176309 -0.00176434 -0.00166304 -0.00166433 -0.00176434 -0.00176631 -0.00176309 -0.00176434 -0.00186253 -0.00186415 -0.00176434 -0.00176631 -0.00186415 -0.00186665 -0.00145737 -0.001457 -0.00156116 -0.00156197 -0.001457 -0.00145664 -0.00156197 -0.00156313 -0.00156116 -0.00156197 -0.00166433 -0.0016662 -0.00156197 -0.00156313 -0.0016662 -0.00166877 -0.00145664 -0.00145628 -0.00156313 -0.00156474 -0.00145628 -0.00145592 -0.00156474 -0.0015669 -0.00156313 -0.00156474 -0.00166877 -0.00167215 -0.00156474 -0.0015669 -0.00167215 -0.00167654 -0.00166433 -0.0016662 -0.00176631 -0.00176909 -0.0016662 -0.00166877 -0.00176909 -0.0017728 -0.00176631 -0.00176909 -0.00186665 -0.00187011 -0.00176909 -0.0017728 -0.00187011 -0.00187466 -0.00166877 -0.00167215 -0.0017728 -0.0017776 -0.00167215 -0.00167654 -0.0017776 -0.00178372 -0.0017728 -0.0017776 -0.00187466 -0.00188044 -0.0017776 -0.00178372 -0.00188044 -0.00188767 -0.00186172 -0.00186173 -0.00195922 -0.0019593 -0.00186173 -0.00186253 -0.0019593 -0.00196027 -0.00195922 -0.0019593 -0.00205486 -0.00205499 -0.0019593 -0.00196027 -0.00205499 -0.00205606 -0.00186253 -0.00186415 -0.00196027 -0.00196216 -0.00186415 -0.00186665 -0.00196216 -0.00196501 -0.00196027 -0.00196216 -0.00205606 -0.00205809 -0.00196216 -0.00196501 -0.00205809 -0.00206112 -0.00205486 -0.00205499 -0.00214847 -0.00214863 -0.00205499 -0.00205606 -0.00214863 -0.00214974 -0.00214847 -0.00214863 -0.00223995 -0.00224012 -0.00214863 -0.00214974 -0.00224012 -0.00224121 -0.00205606 -0.00205809 -0.00214974 -0.00215181 -0.00205809 -0.00206112 -0.00215181 -0.00215486 -0.00214974 -0.00215181 -0.00224121 -0.00224322 -0.00215181 -0.00215486 -0.00224322 -0.00224618 -0.00186665 -0.00187011 -0.00196501 -0.0019689 -0.00187011 -0.00187466 -0.0019689 -0.00197394 -0.00196501 -0.0019689 -0.00206112 -0.00206521 -0.0019689 -0.00197394 -0.00206521 -0.00207044 -0.00187466 -0.00188044 -0.00197394 -0.00198025 -0.00188044 -0.00188767 -0.00198025 -0.00198799 -0.00197394 -0.00198025 -0.00207044 -0.00207688 -0.00198025 -0.00198799 -0.00207688 -0.00208462 -0.00206112 -0.00206521 -0.00215486 -0.00215894 -0.00206521 -0.00207044 -0.00215894 -0.00216409 -0.00215486 -0.00215894 -0.00224618 -0.00225008 -0.00215894 -0.00216409 -0.00225008 -0.00225494 -0.00207044 -0.00207688 -0.00216409 -0.00217033 -0.00207688 -0.00208462 -0.00217033 -0.00217771 -0.00216409 -0.00217033 -0.00225494 -0.00226076 -0.00217033 -0.00217771 -0.00226076 -0.00226751 -0.00145592 -0.00145555 -0.0015669 -0.00156978 -0.00145555 -0.00145517 -0.00156978 -0.00157365 -0.0015669 -0.00156978 -0.00167654 -0.00168224 -0.00156978 -0.00157365 -0.00168224 -0.00168966 -0.00145517 -0.00145475 -0.00157365 -0.00157892 -0.00145475 -0.0014543 -0.00157892 -0.00158634 -0.00157365 -0.00157892 -0.00168966 -0.00169946 -0.00157892 -0.00158634 -0.00169946 -0.00171264 -0.00167654 -0.00168224 -0.00178372 -0.00179148 -0.00168224 -0.00168966 -0.00179148 -0.00180131 -0.00178372 -0.00179148 -0.00188767 -0.00189662 -0.00179148 -0.00180131 -0.00189662 -0.00190763 -0.00168966 -0.00169946 -0.00180131 -0.00181381 -0.00169946 -0.00171264 -0.00181381 -0.00182977 -0.00180131 -0.00181381 -0.00190763 -0.00192108 -0.00181381 -0.00182977 -0.00192108 -0.00193734 -0.0014543 -0.00145375 -0.00158634 -0.00159727 -0.00145375 -0.00145301 -0.00159727 -0.00161467 -0.00158634 -0.00159727 -0.00171264 -0.00173083 -0.00159727 -0.00161467 -0.00173083 -0.00175648 -0.00145301 -0.00145171 -0.00161467 -0.00164521 -0.00145171 -0.00145003 -0.00164521 -0.00171138 -0.00161467 -0.00164521 -0.00175648 -0.0017932 -0.00164521 -0.00171138 -0.0017932 -0.00183183 -0.00171264 -0.00173083 -0.00182977 -0.00185011 -0.00173083 -0.00175648 -0.00185011 -0.00187556 -0.00182977 -0.00185011 -0.00193734 -0.00195657 -0.00185011 -0.00187556 -0.00195657 -0.00197819 -0.00175648 -0.0017932 -0.00187556 -0.00190419 -0.0017932 -0.00183183 -0.00190419 -0.00193357 -0.00187556 -0.00190419 -0.00197819 -0.00200087 -0.00190419 -0.00193357 -0.00200087 -0.00202266 -0.00188767 -0.00189662 -0.00198799 -0.00199735 -0.00189662 -0.00190763 -0.00199735 -0.0020085 -0.00198799 -0.00199735 -0.00208462 -0.00209376 -0.00199735 -0.0020085 -0.00209376 -0.00210434 -0.00190763 -0.00192108 -0.0020085 -0.00202161 -0.00192108 -0.00193734 -0.00202161 -0.00203668 -0.0020085 -0.00202161 -0.00210434 -0.00211634 -0.00202161 -0.00203668 -0.00211634 -0.00212956 -0.00208462 -0.00209376 -0.00217771 -0.00218621 -0.00209376 -0.00210434 -0.00218621 -0.00219579 -0.00217771 -0.00218621 -0.00226751 -0.00227513 -0.00218621 -0.00219579 -0.00227513 -0.00228351 -0.00210434 -0.00211634 -0.00219579 -0.00220632 -0.00211634 -0.00212956 -0.00220632 -0.00221752 -0.00219579 -0.00220632 -0.00228351 -0.00229246 -0.00220632 -0.00221752 -0.00229246 -0.00230172 -0.00193734 -0.00195657 -0.00203668 -0.00205344 -0.00195657 -0.00197819 -0.00205344 -0.00207119 -0.00203668 -0.00205344 -0.00212956 -0.00214362 -0.00205344 -0.00207119 -0.00214362 -0.00215788 -0.00197819 -0.00200087 -0.00207119 -0.00208885 -0.00200087 -0.00202266 -0.00208885 -0.00210548 -0.00207119 -0.00208885 -0.00215788 -0.00217162 -0.00208885 -0.00210548 -0.00217162 -0.0021843 -0.00212956 -0.00214362 -0.00221752 -0.00222902 -0.00214362 -0.00215788 -0.00222902 -0.00224031 -0.00221752 -0.00222902 -0.00230172 -0.00231094 -0.00222902 -0.00224031 -0.00231094 -0.00231975 -0.00215788 -0.00217162 -0.00224031 -0.00225092 -0.00217162 -0.0021843 -0.00225092 -0.00226053 -0.00224031 -0.00225092 -0.00231975 -0.00232783 -0.00225092 -0.00226053 -0.00232783 -0.00233498 -0.00223995 -0.00224012 -0.00232926 -0.00232942 -0.00224012 -0.00224121 -0.00232942 -0.00233045 -0.00232926 -0.00232942 -0.00241641 -0.00241656 -0.00232942 -0.00233045 -0.00241656 -0.00241749 -0.00224121 -0.00224322 -0.00233045 -0.00233234 -0.00224322 -0.00224618 -0.00233234 -0.00233509 -0.00233045 -0.00233234 -0.00241749 -0.00241919 -0.00233234 -0.00233509 -0.00241919 -0.00242167 -0.00241641 -0.00241656 -0.00250148 -0.0025016 -0.00241656 -0.00241749 -0.0025016 -0.0025024 -0.00250148 -0.0025016 -0.00258456 -0.00258464 -0.0025016 -0.0025024 -0.00258464 -0.0025853 -0.00241749 -0.00241919 -0.0025024 -0.00250388 -0.00241919 -0.00242167 -0.00250388 -0.00250603 -0.0025024 -0.00250388 -0.0025853 -0.00258653 -0.00250388 -0.00250603 -0.00258653 -0.00258831 -0.00224618 -0.00225008 -0.00233509 -0.00233869 -0.00225008 -0.00225494 -0.00233869 -0.00234313 -0.00233509 -0.00233869 -0.00242167 -0.00242488 -0.00233869 -0.00234313 -0.00242488 -0.0024288 -0.00225494 -0.00226076 -0.00234313 -0.00234837 -0.00226076 -0.00226751 -0.00234837 -0.00235435 -0.00234313 -0.00234837 -0.0024288 -0.00243338 -0.00234837 -0.00235435 -0.00243338 -0.00243852 -0.00242167 -0.00242488 -0.00250603 -0.0025088 -0.00242488 -0.0024288 -0.0025088 -0.00251215 -0.00250603 -0.0025088 -0.00258831 -0.0025906 -0.0025088 -0.00251215 -0.0025906 -0.00259335 -0.0024288 -0.00243338 -0.00251215 -0.00251602 -0.00243338 -0.00243852 -0.00251602 -0.0025203 -0.00251215 -0.00251602 -0.00259335 -0.00259649 -0.00251602 -0.0025203 -0.00259649 -0.00259993 -0.00258456 -0.00258464 -0.0026658 -0.00266583 -0.00258464 -0.0025853 -0.00266583 -0.00266632 -0.0026658 -0.00266583 -0.00274534 -0.00274532 -0.00266583 -0.00266632 -0.00274532 -0.00274564 -0.0025853 -0.00258653 -0.00266632 -0.00266728 -0.00258653 -0.00258831 -0.00266728 -0.00266866 -0.00266632 -0.00266728 -0.00274564 -0.00274629 -0.00266728 -0.00266866 -0.00274629 -0.00274726 -0.00274534 -0.00274532 -0.00282338 -0.0028233 -0.00274532 -0.00274564 -0.0028233 -0.00282345 -0.00282338 -0.0028233 -0.0029 -0.0029 -0.0028233 -0.00282345 -0.0029 -0.0029 -0.00274564 -0.00274629 -0.00282345 -0.00282379 -0.00274629 -0.00274726 -0.00282379 -0.0028243 -0.00282345 -0.00282379 -0.0029 -0.0029 -0.00282379 -0.0028243 -0.0029 -0.0029 -0.00258831 -0.0025906 -0.00266866 -0.00267044 -0.0025906 -0.00259335 -0.00267044 -0.00267257 -0.00266866 -0.00267044 -0.00274726 -0.0027485 -0.00267044 -0.00267257 -0.0027485 -0.00274998 -0.00259335 -0.00259649 -0.00267257 -0.00267498 -0.00259649 -0.00259993 -0.00267498 -0.00267759 -0.00267257 -0.00267498 -0.00274998 -0.00275164 -0.00267498 -0.00267759 -0.00275164 -0.00275343 -0.00274726 -0.0027485 -0.0028243 -0.00282496 -0.0027485 -0.00274998 -0.00282496 -0.00282574 -0.0028243 -0.00282496 -0.0029 -0.0029 -0.00282496 -0.00282574 -0.0029 -0.0029 -0.00274998 -0.00275164 -0.00282574 -0.00282661 -0.00275164 -0.00275343 -0.00282661 -0.00282754 -0.00282574 -0.00282661 -0.0029 -0.0029 -0.00282661 -0.00282754 -0.0029 -0.0029 -0.00226751 -0.00227513 -0.00235435 -0.00236097 -0.00227513 -0.00228351 -0.00236097 -0.00236809 -0.00235435 -0.00236097 -0.00243852 -0.00244411 -0.00236097 -0.00236809 -0.00244411 -0.00245 -0.00228351 -0.00229246 -0.00236809 -0.00237551 -0.00229246 -0.00230172 -0.00237551 -0.00238299 -0.00236809 -0.00237551 -0.00245 -0.00245601 -0.00237551 -0.00238299 -0.00245601 -0.00246192 -0.00243852 -0.00244411 -0.0025203 -0.00252489 -0.00244411 -0.00245 -0.00252489 -0.00252963 -0.0025203 -0.00252489 -0.00259993 -0.00260356 -0.00252489 -0.00252963 -0.00260356 -0.00260725 -0.00245 -0.00245601 -0.00252963 -0.00253437 -0.00245601 -0.00246192 -0.00253437 -0.0025389 -0.00252963 -0.00253437 -0.00260725 -0.00261085 -0.00253437 -0.0025389 -0.00261085 -0.00261421 -0.00230172 -0.00231094 -0.00238299 -0.00239024 -0.00231094 -0.00231975 -0.00239024 -0.00239698 -0.00238299 -0.00239024 -0.00246192 -0.00246749 -0.00239024 -0.00239698 -0.00246749 -0.00247253 -0.00231975 -0.00232783 -0.00239698 -0.002403 -0.00232783 -0.00233498 -0.002403 -0.00240819 -0.00239698 -0.002403 -0.00247253 -0.00247687 -0.002403 -0.00240819 -0.00247687 -0.00248048 -0.00246192 -0.00246749 -0.0025389 -0.00254306 -0.00246749 -0.00247253 -0.00254306 -0.0025467 -0.0025389 -0.00254306 -0.00261421 -0.00261719 -0.00254306 -0.0025467 -0.00261719 -0.00261969 -0.00247253 -0.00247687 -0.0025467 -0.0025497 -0.00247687 -0.00248048 -0.0025497 -0.00255204 -0.0025467 -0.0025497 -0.00261969 -0.00262162 -0.0025497 -0.00255204 -0.00262162 -0.00262299 -0.00259993 -0.00260356 -0.00267759 -0.00268031 -0.00260356 -0.00260725 -0.00268031 -0.00268303 -0.00267759 -0.00268031 -0.00275343 -0.00275527 -0.00268031 -0.00268303 -0.00275527 -0.00275707 -0.00260725 -0.00261085 -0.00268303 -0.00268562 -0.00261085 -0.00261421 -0.00268562 -0.00268798 -0.00268303 -0.00268562 -0.00275707 -0.00275876 -0.00268562 -0.00268798 -0.00275876 -0.00276025 -0.00275343 -0.00275527 -0.00282754 -0.00282849 -0.00275527 -0.00275707 -0.00282849 -0.00282941 -0.00282754 -0.00282849 -0.0029 -0.0029 -0.00282849 -0.00282941 -0.0029 -0.0029 -0.00275707 -0.00275876 -0.00282941 -0.00283026 -0.00275876 -0.00276025 -0.00283026 -0.00283098 -0.00282941 -0.00283026 -0.0029 -0.0029 -0.00283026 -0.00283098 -0.0029 -0.0029 -0.00261421 -0.00261719 -0.00268798 -0.00268999 -0.00261719 -0.00261969 -0.00268999 -0.00269158 -0.00268798 -0.00268999 -0.00276025 -0.00276147 -0.00268999 -0.00269158 -0.00276147 -0.00276235 -0.00261969 -0.00262162 -0.00269158 -0.0026927 -0.00262162 -0.00262299 -0.0026927 -0.00269334 -0.00269158 -0.0026927 -0.00276235 -0.00276288 -0.0026927 -0.00269334 -0.00276288 -0.00276305 -0.00276025 -0.00276147 -0.00283098 -0.00283153 -0.00276147 -0.00276235 -0.00283153 -0.0028319 -0.00283098 -0.00283153 -0.0029 -0.0029 -0.00283153 -0.0028319 -0.0029 -0.0029 -0.00276235 -0.00276288 -0.0028319 -0.00283206 -0.00276288 -0.00276305 -0.00283206 -0.00283201 -0.0028319 -0.00283206 -0.0029 -0.0029 -0.00283206 -0.00283201 -0.0029 -0.0029 -0.00145003 -0.00167055 -0.00171138 -0.00176454 -0.00167055 -0.00180143 -0.00176454 -0.00183787 -0.00171138 -0.00176454 -0.00183183 -0.00187207 -0.00176454 -0.00183787 -0.00187207 -0.00191085 -0.00180143 -0.0018903 -0.00183787 -0.00190696 -0.0018903 -0.00195751 -0.00190696 -0.00196599 -0.00183787 -0.00190696 -0.00191085 -0.00195526 -0.00190696 -0.00196599 -0.00195526 -0.00199944 -0.00183183 -0.00187207 -0.00193357 -0.00196073 -0.00187207 -0.00191085 -0.00196073 -0.00198812 -0.00193357 -0.00196073 -0.00202266 -0.002043 -0.00196073 -0.00198812 -0.002043 -0.00206264 -0.00191085 -0.00195526 -0.00198812 -0.0020172 -0.00195526 -0.00199944 -0.0020172 -0.0020483 -0.00198812 -0.0020172 -0.00206264 -0.0020832 -0.0020172 -0.0020483 -0.0020832 -0.00210511 -0.00195751 -0.00201104 -0.00196599 -0.00201565 -0.00201104 -0.00205482 -0.00201565 -0.00205743 -0.00196599 -0.00201565 -0.00199944 -0.00204013 -0.00201565 -0.00205743 -0.00204013 -0.00207631 -0.00205482 -0.00209109 -0.00205743 -0.00209265 -0.00209109 -0.00212126 -0.00209265 -0.00212231 -0.00205743 -0.00209265 -0.00207631 -0.0021079 -0.00209265 -0.00212231 -0.0021079 -0.00213514 -0.00199944 -0.00204013 -0.0020483 -0.00207922 -0.00204013 -0.00207631 -0.00207922 -0.00210838 -0.0020483 -0.00207922 -0.00210511 -0.00212781 -0.00207922 -0.00210838 -0.00212781 -0.00215023 -0.00207631 -0.0021079 -0.00210838 -0.00213494 -0.0021079 -0.00213514 -0.00213494 -0.00215855 -0.00210838 -0.00213494 -0.00215023 -0.00217148 -0.00213494 -0.00215855 -0.00217148 -0.00219097 -0.00202266 -0.002043 -0.00210548 -0.00212076 -0.002043 -0.00206264 -0.00212076 -0.00213534 -0.00210548 -0.00212076 -0.0021843 -0.00219583 -0.00212076 -0.00213534 -0.00219583 -0.00220663 -0.00206264 -0.0020832 -0.00213534 -0.00215014 -0.0020832 -0.00210511 -0.00215014 -0.00216579 -0.00213534 -0.00215014 -0.00220663 -0.00221736 -0.00215014 -0.00216579 -0.00221736 -0.00222852 -0.0021843 -0.00219583 -0.00226053 -0.00226913 -0.00219583 -0.00220663 -0.00226913 -0.00227703 -0.00226053 -0.00226913 -0.00233498 -0.00234126 -0.00226913 -0.00227703 -0.00234126 -0.00234687 -0.00220663 -0.00221736 -0.00227703 -0.00228469 -0.00221736 -0.00222852 -0.00228469 -0.00229253 -0.00227703 -0.00228469 -0.00234687 -0.00235217 -0.00228469 -0.00229253 -0.00235217 -0.00235748 -0.00210511 -0.00212781 -0.00216579 -0.00218222 -0.00212781 -0.00215023 -0.00218222 -0.00219894 -0.00216579 -0.00218222 -0.00222852 -0.00224028 -0.00218222 -0.00219894 -0.00224028 -0.00225244 -0.00215023 -0.00217148 -0.00219894 -0.00221531 -0.00217148 -0.00219097 -0.00221531 -0.00223076 -0.00219894 -0.00221531 -0.00225244 -0.00226464 -0.00221531 -0.00223076 -0.00226464 -0.00227644 -0.00222852 -0.00224028 -0.00229253 -0.00230076 -0.00224028 -0.00225244 -0.00230076 -0.00230936 -0.00229253 -0.00230076 -0.00235748 -0.00236302 -0.00230076 -0.00230936 -0.00236302 -0.00236886 -0.00225244 -0.00226464 -0.00230936 -0.00231815 -0.00226464 -0.00227644 -0.00231815 -0.00232684 -0.00230936 -0.00231815 -0.00236886 -0.00237492 -0.00231815 -0.00232684 -0.00237492 -0.00238103 -0.00212126 -0.00214632 -0.00212231 -0.00214716 -0.00214632 -0.00216696 -0.00214716 -0.00216777 -0.00212231 -0.00214716 -0.00213514 -0.00215835 -0.00214716 -0.00216777 -0.00215835 -0.00217784 -0.00216696 -0.00218372 -0.00216777 -0.00218458 -0.00218372 -0.00219696 -0.00218458 -0.00219793 -0.00216777 -0.00218458 -0.00217784 -0.00219389 -0.00218458 -0.00219793 -0.00219389 -0.00220672 -0.00213514 -0.00215835 -0.00215855 -0.00217912 -0.00215835 -0.00217784 -0.00217912 -0.00219668 -0.00215855 -0.00217912 -0.00219097 -0.00220838 -0.00217912 -0.00219668 -0.00220838 -0.00222352 -0.00217784 -0.00219389 -0.00219668 -0.00221132 -0.00219389 -0.00220672 -0.00221132 -0.00222313 -0.00219668 -0.00221132 -0.00222352 -0.00223632 -0.00221132 -0.00222313 -0.00223632 -0.00224677 -0.00219696 -0.00220699 -0.00219793 -0.00220807 -0.00220699 -0.00221401 -0.00220807 -0.00221519 -0.00219793 -0.00220807 -0.00220672 -0.00221651 -0.00220807 -0.00221519 -0.00221651 -0.00222341 -0.00221401 -0.00221817 -0.00221519 -0.00221941 -0.00221817 -0.00221955 -0.00221941 -0.0022208 -0.00221519 -0.00221941 -0.00222341 -0.00222751 -0.00221941 -0.0022208 -0.00222751 -0.00222887 -0.00220672 -0.00221651 -0.00222313 -0.00223221 -0.00221651 -0.00222341 -0.00223221 -0.00223864 -0.00222313 -0.00223221 -0.00224677 -0.00225487 -0.00223221 -0.00223864 -0.00225487 -0.00226063 -0.00222341 -0.00222751 -0.00223864 -0.00224247 -0.00222751 -0.00222887 -0.00224247 -0.00224373 -0.00223864 -0.00224247 -0.00226063 -0.00226407 -0.00224247 -0.00224373 -0.00226407 -0.0022652 -0.00219097 -0.00220838 -0.00223076 -0.00224489 -0.00220838 -0.00222352 -0.00224489 -0.00225743 -0.00223076 -0.00224489 -0.00227644 -0.00228749 -0.00224489 -0.00225743 -0.00228749 -0.00229748 -0.00222352 -0.00223632 -0.00225743 -0.0022682 -0.00223632 -0.00224677 -0.0022682 -0.0022771 -0.00225743 -0.0022682 -0.00229748 -0.0023062 -0.0022682 -0.0022771 -0.0023062 -0.00231349 -0.00227644 -0.00228749 -0.00232684 -0.00233514 -0.00228749 -0.00229748 -0.00233514 -0.00234279 -0.00232684 -0.00233514 -0.00238103 -0.002387 -0.00233514 -0.00234279 -0.002387 -0.0023926 -0.00229748 -0.0023062 -0.00234279 -0.00234957 -0.0023062 -0.00231349 -0.00234957 -0.00235531 -0.00234279 -0.00234957 -0.0023926 -0.00239765 -0.00234957 -0.00235531 -0.00239765 -0.00240198 -0.00224677 -0.00225487 -0.0022771 -0.00228405 -0.00225487 -0.00226063 -0.00228405 -0.00228902 -0.0022771 -0.00228405 -0.00231349 -0.00231924 -0.00228405 -0.00228902 -0.00231924 -0.00232338 -0.00226063 -0.00226407 -0.00228902 -0.002292 -0.00226407 -0.0022652 -0.002292 -0.00229298 -0.00228902 -0.002292 -0.00232338 -0.00232587 -0.002292 -0.00229298 -0.00232587 -0.00232668 -0.00231349 -0.00231924 -0.00235531 -0.00235989 -0.00231924 -0.00232338 -0.00235989 -0.0023632 -0.00235531 -0.00235989 -0.00240198 -0.00240546 -0.00235989 -0.0023632 -0.00240546 -0.00240801 -0.00232338 -0.00232587 -0.0023632 -0.0023652 -0.00232587 -0.00232668 -0.0023652 -0.00236584 -0.0023632 -0.0023652 -0.00240801 -0.00240954 -0.0023652 -0.00236584 -0.00240954 -0.00241001 -0.00233498 -0.00234126 -0.00240819 -0.00241259 -0.00234126 -0.00234687 -0.00241259 -0.00241639 -0.00240819 -0.00241259 -0.00248048 -0.00248338 -0.00241259 -0.00241639 -0.00248338 -0.00248574 -0.00234687 -0.00235217 -0.00241639 -0.00241984 -0.00235217 -0.00235748 -0.00241984 -0.0024232 -0.00241639 -0.00241984 -0.00248574 -0.00248774 -0.00241984 -0.0024232 -0.00248774 -0.00248961 -0.00248048 -0.00248338 -0.00255204 -0.00255377 -0.00248338 -0.00248574 -0.00255377 -0.002555 -0.00255204 -0.00255377 -0.00262299 -0.00262382 -0.00255377 -0.002555 -0.00262382 -0.00262423 -0.00248574 -0.00248774 -0.002555 -0.00255591 -0.00248774 -0.00248961 -0.00255591 -0.00255666 -0.002555 -0.00255591 -0.00262423 -0.00262434 -0.00255591 -0.00255666 -0.00262434 -0.0026243 -0.00235748 -0.00236302 -0.0024232 -0.00242668 -0.00236302 -0.00236886 -0.00242668 -0.00243039 -0.0024232 -0.00242668 -0.00248961 -0.00249153 -0.00242668 -0.00243039 -0.00249153 -0.0024936 -0.00236886 -0.00237492 -0.00243039 -0.0024343 -0.00237492 -0.00238103 -0.0024343 -0.00243835 -0.00243039 -0.0024343 -0.0024936 -0.00249587 -0.0024343 -0.00243835 -0.00249587 -0.0024983 -0.00248961 -0.00249153 -0.00255666 -0.00255742 -0.00249153 -0.0024936 -0.00255742 -0.00255829 -0.00255666 -0.00255742 -0.0026243 -0.00262425 -0.00255742 -0.00255829 -0.00262425 -0.00262428 -0.0024936 -0.00249587 -0.00255829 -0.00255932 -0.00249587 -0.0024983 -0.00255932 -0.00256054 -0.00255829 -0.00255932 -0.00262428 -0.00262446 -0.00255932 -0.00256054 -0.00262446 -0.0026248 -0.00262299 -0.00262382 -0.00269334 -0.00269355 -0.00262382 -0.00262423 -0.00269355 -0.00269341 -0.00269334 -0.00269355 -0.00276305 -0.0027629 -0.00269355 -0.00269341 -0.0027629 -0.00276249 -0.00262423 -0.00262434 -0.00269341 -0.00269301 -0.00262434 -0.0026243 -0.00269301 -0.00269249 -0.00269