# vtk DataFile Version 3.0
#This file was generated by the deal.II library on 2018/7/10 at 10:46:56
ASCII
DATASET UNSTRUCTURED_GRID

POINTS 4096 double
0 0.5 0
0.03125 0.5 0
0 0.53125 0
0.03125 0.53125 0
0.03125 0.5 0
0.0625 0.5 0
0.03125 0.53125 0
0.0625 0.53125 0
0 0.53125 0
0.03125 0.53125 0
0 0.5625 0
0.03125 0.5625 0
0.03125 0.53125 0
0.0625 0.53125 0
0.03125 0.5625 0
0.0625 0.5625 0
0.0625 0.5 0
0.09375 0.5 0
0.0625 0.53125 0
0.09375 0.53125 0
0.09375 0.5 0
0.125 0.5 0
0.09375 0.53125 0
0.125 0.53125 0
0.0625 0.53125 0
0.09375 0.53125 0
0.0625 0.5625 0
0.09375 0.5625 0
0.09375 0.53125 0
0.125 0.53125 0
0.09375 0.5625 0
0.125 0.5625 0
0 0.5625 0
0.03125 0.5625 0
0 0.59375 0
0.03125 0.59375 0
0.03125 0.5625 0
0.0625 0.5625 0
0.03125 0.59375 0
0.0625 0.59375 0
0 0.59375 0
0.03125 0.59375 0
0 0.625 0
0.03125 0.625 0
0.03125 0.59375 0
0.0625 0.59375 0
0.03125 0.625 0
0.0625 0.625 0
0.0625 0.5625 0
0.09375 0.5625 0
0.0625 0.59375 0
0.09375 0.59375 0
0.09375 0.5625 0
0.125 0.5625 0
0.09375 0.59375 0
0.125 0.59375 0
0.0625 0.59375 0
0.09375 0.59375 0
0.0625 0.625 0
0.09375 0.625 0
0.09375 0.59375 0
0.125 0.59375 0
0.09375 0.625 0
0.125 0.625 0
0.125 0.5 0
0.15625 0.5 0
0.125 0.53125 0
0.15625 0.53125 0
0.15625 0.5 0
0.1875 0.5 0
0.15625 0.53125 0
0.1875 0.53125 0
0.125 0.53125 0
0.15625 0.53125 0
0.125 0.5625 0
0.15625 0.5625 0
0.15625 0.53125 0
0.1875 0.53125 0
0.15625 0.5625 0
0.1875 0.5625 0
0.1875 0.5 0
0.21875 0.5 0
0.1875 0.53125 0
0.21875 0.53125 0
0.21875 0.5 0
0.25 0.5 0
0.21875 0.53125 0
0.25 0.53125 0
0.1875 0.53125 0
0.21875 0.53125 0
0.1875 0.5625 0
0.21875 0.5625 0
0.21875 0.53125 0
0.25 0.53125 0
0.21875 0.5625 0
0.25 0.5625 0
0.125 0.5625 0
0.15625 0.5625 0
0.125 0.59375 0
0.15625 0.59375 0
0.15625 0.5625 0
0.1875 0.5625 0
0.15625 0.59375 0
0.1875 0.59375 0
0.125 0.59375 0
0.15625 0.59375 0
0.125 0.625 0
0.15625 0.625 0
0.15625 0.59375 0
0.1875 0.59375 0
0.15625 0.625 0
0.1875 0.625 0
0.1875 0.5625 0
0.21875 0.5625 0
0.1875 0.59375 0
0.21875 0.59375 0
0.21875 0.5625 0
0.25 0.5625 0
0.21875 0.59375 0
0.25 0.59375 0
0.1875 0.59375 0
0.21875 0.59375 0
0.1875 0.625 0
0.21875 0.625 0
0.21875 0.59375 0
0.25 0.59375 0
0.21875 0.625 0
0.25 0.625 0
0 0.625 0
0.03125 0.625 0
0 0.65625 0
0.03125 0.65625 0
0.03125 0.625 0
0.0625 0.625 0
0.03125 0.65625 0
0.0625 0.65625 0
0 0.65625 0
0.03125 0.65625 0
0 0.6875 0
0.03125 0.6875 0
0.03125 0.65625 0
0.0625 0.65625 0
0.03125 0.6875 0
0.0625 0.6875 0
0.0625 0.625 0
0.09375 0.625 0
0.0625 0.65625 0
0.09375 0.65625 0
0.09375 0.625 0
0.125 0.625 0
0.09375 0.65625 0
0.125 0.65625 0
0.0625 0.65625 0
0.09375 0.65625 0
0.0625 0.6875 0
0.09375 0.6875 0
0.09375 0.65625 0
0.125 0.65625 0
0.09375 0.6875 0
0.125 0.6875 0
0 0.6875 0
0.03125 0.6875 0
0 0.71875 0
0.03125 0.71875 0
0.03125 0.6875 0
0.0625 0.6875 0
0.03125 0.71875 0
0.0625 0.71875 0
0 0.71875 0
0.03125 0.71875 0
0 0.75 0
0.03125 0.75 0
0.03125 0.71875 0
0.0625 0.71875 0
0.03125 0.75 0
0.0625 0.75 0
0.0625 0.6875 0
0.09375 0.6875 0
0.0625 0.71875 0
0.09375 0.71875 0
0.09375 0.6875 0
0.125 0.6875 0
0.09375 0.71875 0
0.125 0.71875 0
0.0625 0.71875 0
0.09375 0.71875 0
0.0625 0.75 0
0.09375 0.75 0
0.09375 0.71875 0
0.125 0.71875 0
0.09375 0.75 0
0.125 0.75 0
0.125 0.625 0
0.15625 0.625 0
0.125 0.65625 0
0.15625 0.65625 0
0.15625 0.625 0
0.1875 0.625 0
0.15625 0.65625 0
0.1875 0.65625 0
0.125 0.65625 0
0.15625 0.65625 0
0.125 0.6875 0
0.15625 0.6875 0
0.15625 0.65625 0
0.1875 0.65625 0
0.15625 0.6875 0
0.1875 0.6875 0
0.1875 0.625 0
0.21875 0.625 0
0.1875 0.65625 0
0.21875 0.65625 0
0.21875 0.625 0
0.25 0.625 0
0.21875 0.65625 0
0.25 0.65625 0
0.1875 0.65625 0
0.21875 0.65625 0
0.1875 0.6875 0
0.21875 0.6875 0
0.21875 0.65625 0
0.25 0.65625 0
0.21875 0.6875 0
0.25 0.6875 0
0.125 0.6875 0
0.15625 0.6875 0
0.125 0.71875 0
0.15625 0.71875 0
0.15625 0.6875 0
0.1875 0.6875 0
0.15625 0.71875 0
0.1875 0.71875 0
0.125 0.71875 0
0.15625 0.71875 0
0.125 0.75 0
0.15625 0.75 0
0.15625 0.71875 0
0.1875 0.71875 0
0.15625 0.75 0
0.1875 0.75 0
0.1875 0.6875 0
0.21875 0.6875 0
0.1875 0.71875 0
0.21875 0.71875 0
0.21875 0.6875 0
0.25 0.6875 0
0.21875 0.71875 0
0.25 0.71875 0
0.1875 0.71875 0
0.21875 0.71875 0
0.1875 0.75 0
0.21875 0.75 0
0.21875 0.71875 0
0.25 0.71875 0
0.21875 0.75 0
0.25 0.75 0
0.25 0.5 0
0.28125 0.5 0
0.25 0.53125 0
0.28125 0.53125 0
0.28125 0.5 0
0.3125 0.5 0
0.28125 0.53125 0
0.3125 0.53125 0
0.25 0.53125 0
0.28125 0.53125 0
0.25 0.5625 0
0.28125 0.5625 0
0.28125 0.53125 0
0.3125 0.53125 0
0.28125 0.5625 0
0.3125 0.5625 0
0.3125 0.5 0
0.34375 0.5 0
0.3125 0.53125 0
0.34375 0.53125 0
0.34375 0.5 0
0.375 0.5 0
0.34375 0.53125 0
0.375 0.53125 0
0.3125 0.53125 0
0.34375 0.53125 0
0.3125 0.5625 0
0.34375 0.5625 0
0.34375 0.53125 0
0.375 0.53125 0
0.34375 0.5625 0
0.375 0.5625 0
0.25 0.5625 0
0.28125 0.5625 0
0.25 0.59375 0
0.28125 0.59375 0
0.28125 0.5625 0
0.3125 0.5625 0
0.28125 0.59375 0
0.3125 0.59375 0
0.25 0.59375 0
0.28125 0.59375 0
0.25 0.625 0
0.28125 0.625 0
0.28125 0.59375 0
0.3125 0.59375 0
0.28125 0.625 0
0.3125 0.625 0
0.3125 0.5625 0
0.34375 0.5625 0
0.3125 0.59375 0
0.34375 0.59375 0
0.34375 0.5625 0
0.375 0.5625 0
0.34375 0.59375 0
0.375 0.59375 0
0.3125 0.59375 0
0.34375 0.59375 0
0.3125 0.625 0
0.34375 0.625 0
0.34375 0.59375 0
0.375 0.59375 0
0.34375 0.625 0
0.375 0.625 0
0.375 0.5 0
0.40625 0.5 0
0.375 0.53125 0
0.40625 0.53125 0
0.40625 0.5 0
0.4375 0.5 0
0.40625 0.53125 0
0.4375 0.53125 0
0.375 0.53125 0
0.40625 0.53125 0
0.375 0.5625 0
0.40625 0.5625 0
0.40625 0.53125 0
0.4375 0.53125 0
0.40625 0.5625 0
0.4375 0.5625 0
0.4375 0.5 0
0.46875 0.5 0
0.4375 0.53125 0
0.46875 0.53125 0
0.46875 0.5 0
0.5 0.5 0
0.46875 0.53125 0
0.5 0.53125 0
0.4375 0.53125 0
0.46875 0.53125 0
0.4375 0.5625 0
0.46875 0.5625 0
0.46875 0.53125 0
0.5 0.53125 0
0.46875 0.5625 0
0.5 0.5625 0
0.375 0.5625 0
0.40625 0.5625 0
0.375 0.59375 0
0.40625 0.59375 0
0.40625 0.5625 0
0.4375 0.5625 0
0.40625 0.59375 0
0.4375 0.59375 0
0.375 0.59375 0
0.40625 0.59375 0
0.375 0.625 0
0.40625 0.625 0
0.40625 0.59375 0
0.4375 0.59375 0
0.40625 0.625 0
0.4375 0.625 0
0.4375 0.5625 0
0.46875 0.5625 0
0.4375 0.59375 0
0.46875 0.59375 0
0.46875 0.5625 0
0.5 0.5625 0
0.46875 0.59375 0
0.5 0.59375 0
0.4375 0.59375 0
0.46875 0.59375 0
0.4375 0.625 0
0.46875 0.625 0
0.46875 0.59375 0
0.5 0.59375 0
0.46875 0.625 0
0.5 0.625 0
0.25 0.625 0
0.28125 0.625 0
0.25 0.65625 0
0.28125 0.65625 0
0.28125 0.625 0
0.3125 0.625 0
0.28125 0.65625 0
0.3125 0.65625 0
0.25 0.65625 0
0.28125 0.65625 0
0.25 0.6875 0
0.28125 0.6875 0
0.28125 0.65625 0
0.3125 0.65625 0
0.28125 0.6875 0
0.3125 0.6875 0
0.3125 0.625 0
0.34375 0.625 0
0.3125 0.65625 0
0.34375 0.65625 0
0.34375 0.625 0
0.375 0.625 0
0.34375 0.65625 0
0.375 0.65625 0
0.3125 0.65625 0
0.34375 0.65625 0
0.3125 0.6875 0
0.34375 0.6875 0
0.34375 0.65625 0
0.375 0.65625 0
0.34375 0.6875 0
0.375 0.6875 0
0.25 0.6875 0
0.28125 0.6875 0
0.25 0.71875 0
0.28125 0.71875 0
0.28125 0.6875 0
0.3125 0.6875 0
0.28125 0.71875 0
0.3125 0.71875 0
0.25 0.71875 0
0.28125 0.71875 0
0.25 0.75 0
0.28125 0.75 0
0.28125 0.71875 0
0.3125 0.71875 0
0.28125 0.75 0
0.3125 0.75 0
0.3125 0.6875 0
0.34375 0.6875 0
0.3125 0.71875 0
0.34375 0.71875 0
0.34375 0.6875 0
0.375 0.6875 0
0.34375 0.71875 0
0.375 0.71875 0
0.3125 0.71875 0
0.34375 0.71875 0
0.3125 0.75 0
0.34375 0.75 0
0.34375 0.71875 0
0.375 0.71875 0
0.34375 0.75 0
0.375 0.75 0
0.375 0.625 0
0.40625 0.625 0
0.375 0.65625 0
0.40625 0.65625 0
0.40625 0.625 0
0.4375 0.625 0
0.40625 0.65625 0
0.4375 0.65625 0
0.375 0.65625 0
0.40625 0.65625 0
0.375 0.6875 0
0.40625 0.6875 0
0.40625 0.65625 0
0.4375 0.65625 0
0.40625 0.6875 0
0.4375 0.6875 0
0.4375 0.625 0
0.46875 0.625 0
0.4375 0.65625 0
0.46875 0.65625 0
0.46875 0.625 0
0.5 0.625 0
0.46875 0.65625 0
0.5 0.65625 0
0.4375 0.65625 0
0.46875 0.65625 0
0.4375 0.6875 0
0.46875 0.6875 0
0.46875 0.65625 0
0.5 0.65625 0
0.46875 0.6875 0
0.5 0.6875 0
0.375 0.6875 0
0.40625 0.6875 0
0.375 0.71875 0
0.40625 0.71875 0
0.40625 0.6875 0
0.4375 0.6875 0
0.40625 0.71875 0
0.4375 0.71875 0
0.375 0.71875 0
0.40625 0.71875 0
0.375 0.75 0
0.40625 0.75 0
0.40625 0.71875 0
0.4375 0.71875 0
0.40625 0.75 0
0.4375 0.75 0
0.4375 0.6875 0
0.46875 0.6875 0
0.4375 0.71875 0
0.46875 0.71875 0
0.46875 0.6875 0
0.5 0.6875 0
0.46875 0.71875 0
0.5 0.71875 0
0.4375 0.71875 0
0.46875 0.71875 0
0.4375 0.75 0
0.46875 0.75 0
0.46875 0.71875 0
0.5 0.71875 0
0.46875 0.75 0
0.5 0.75 0
0 0.75 0
0.03125 0.75 0
0 0.78125 0
0.03125 0.78125 0
0.03125 0.75 0
0.0625 0.75 0
0.03125 0.78125 0
0.0625 0.78125 0
0 0.78125 0
0.03125 0.78125 0
0 0.8125 0
0.03125 0.8125 0
0.03125 0.78125 0
0.0625 0.78125 0
0.03125 0.8125 0
0.0625 0.8125 0
0.0625 0.75 0
0.09375 0.75 0
0.0625 0.78125 0
0.09375 0.78125 0
0.09375 0.75 0
0.125 0.75 0
0.09375 0.78125 0
0.125 0.78125 0
0.0625 0.78125 0
0.09375 0.78125 0
0.0625 0.8125 0
0.09375 0.8125 0
0.09375 0.78125 0
0.125 0.78125 0
0.09375 0.8125 0
0.125 0.8125 0
0 0.8125 0
0.03125 0.8125 0
0 0.84375 0
0.03125 0.84375 0
0.03125 0.8125 0
0.0625 0.8125 0
0.03125 0.84375 0
0.0625 0.84375 0
0 0.84375 0
0.03125 0.84375 0
0 0.875 0
0.03125 0.875 0
0.03125 0.84375 0
0.0625 0.84375 0
0.03125 0.875 0
0.0625 0.875 0
0.0625 0.8125 0
0.09375 0.8125 0
0.0625 0.84375 0
0.09375 0.84375 0
0.09375 0.8125 0
0.125 0.8125 0
0.09375 0.84375 0
0.125 0.84375 0
0.0625 0.84375 0
0.09375 0.84375 0
0.0625 0.875 0
0.09375 0.875 0
0.09375 0.84375 0
0.125 0.84375 0
0.09375 0.875 0
0.125 0.875 0
0.125 0.75 0
0.15625 0.75 0
0.125 0.78125 0
0.15625 0.78125 0
0.15625 0.75 0
0.1875 0.75 0
0.15625 0.78125 0
0.1875 0.78125 0
0.125 0.78125 0
0.15625 0.78125 0
0.125 0.8125 0
0.15625 0.8125 0
0.15625 0.78125 0
0.1875 0.78125 0
0.15625 0.8125 0
0.1875 0.8125 0
0.1875 0.75 0
0.21875 0.75 0
0.1875 0.78125 0
0.21875 0.78125 0
0.21875 0.75 0
0.25 0.75 0
0.21875 0.78125 0
0.25 0.78125 0
0.1875 0.78125 0
0.21875 0.78125 0
0.1875 0.8125 0
0.21875 0.8125 0
0.21875 0.78125 0
0.25 0.78125 0
0.21875 0.8125 0
0.25 0.8125 0
0.125 0.8125 0
0.15625 0.8125 0
0.125 0.84375 0
0.15625 0.84375 0
0.15625 0.8125 0
[...]
POINT_DATA 4096
SCALARS State_InstatPDEProblemContainer_0 double 1
LOOKUP_TABLE default
-0.00115462 -0.0011544 -0.0012353 -0.00123518 -0.0011544 -0.00115419 -0.00123518 -0.00123524 -0.0012353 -0.00123518 -0.00131562 -0.00131559 -0.00123518 -0.00123524 -0.00131559 -0.00131591 -0.00115419 -0.00115398 -0.00123524 -0.0012355 -0.00115398 -0.00115377 -0.0012355 -0.00123597 -0.00123524 -0.0012355 -0.00131591 -0.0013166 -0.0012355 -0.00123597 -0.0013166 -0.00131771 -0.00131562 -0.00131559 -0.00139524 -0.00139528 -0.00131559 -0.00131591 -0.00139528 -0.00139583 -0.00139524 -0.00139528 -0.00147386 -0.00147398 -0.00139528 -0.00139583 -0.00147398 -0.00147471 -0.00131591 -0.0013166 -0.00139583 -0.00139691 -0.0013166 -0.00131771 -0.00139691 -0.00139855 -0.00139583 -0.00139691 -0.00147471 -0.00147608 -0.00139691 -0.00139855 -0.00147608 -0.00147814 -0.00115377 -0.00115356 -0.00123597 -0.00123668 -0.00115356 -0.00115334 -0.00123668 -0.00123767 -0.00123597 -0.00123668 -0.00131771 -0.00131927 -0.00123668 -0.00123767 -0.00131927 -0.00132136 -0.00115334 -0.00115312 -0.00123767 -0.001239 -0.00115312 -0.00115288 -0.001239 -0.00124075 -0.00123767 -0.001239 -0.00132136 -0.00132409 -0.001239 -0.00124075 -0.00132409 -0.00132761 -0.00131771 -0.00131927 -0.00139855 -0.00140083 -0.00131927 -0.00132136 -0.00140083 -0.00140383 -0.00139855 -0.00140083 -0.00147814 -0.00148096 -0.00140083 -0.00140383 -0.00148096 -0.00148462 -0.00132136 -0.00132409 -0.00140383 -0.00140769 -0.00132409 -0.00132761 -0.00140769 -0.00141259 -0.00140383 -0.00140769 -0.00148462 -0.00148927 -0.00140769 -0.00141259 -0.00148927 -0.00149506 -0.00147386 -0.00147398 -0.00155125 -0.00155141 -0.00147398 -0.00147471 -0.00155141 -0.00155227 -0.00155125 -0.00155141 -0.0016272 -0.0016274 -0.00155141 -0.00155227 -0.0016274 -0.00162833 -0.00147471 -0.00147608 -0.00155227 -0.00155385 -0.00147608 -0.00147814 -0.00155385 -0.0015562 -0.00155227 -0.00155385 -0.00162833 -0.00163003 -0.00155385 -0.0015562 -0.00163003 -0.00163252 -0.0016272 -0.0016274 -0.00170158 -0.00170179 -0.0016274 -0.00162833 -0.00170179 -0.00170275 -0.00170158 -0.00170179 -0.00177429 -0.00177451 -0.00170179 -0.00170275 -0.00177451 -0.00177546 -0.00162833 -0.00163003 -0.00170275 -0.00170448 -0.00163003 -0.00163252 -0.00170448 -0.00170699 -0.00170275 -0.00170448 -0.00177546 -0.00177714 -0.00170448 -0.00170699 -0.00177714 -0.00177956 -0.00147814 -0.00148096 -0.0015562 -0.00155936 -0.00148096 -0.00148462 -0.00155936 -0.00156342 -0.0015562 -0.00155936 -0.00163252 -0.00163584 -0.00155936 -0.00156342 -0.00163584 -0.00164005 -0.00148462 -0.00148927 -0.00156342 -0.0015685 -0.00148927 -0.00149506 -0.0015685 -0.0015747 -0.00156342 -0.0015685 -0.00164005 -0.00164523 -0.0015685 -0.0015747 -0.00164523 -0.00165145 -0.00163252 -0.00163584 -0.00170699 -0.0017103 -0.00163584 -0.00164005 -0.0017103 -0.00171446 -0.00170699 -0.0017103 -0.00177956 -0.00178274 -0.0017103 -0.00171446 -0.00178274 -0.00178668 -0.00164005 -0.00164523 -0.00171446 -0.00171949 -0.00164523 -0.00165145 -0.00171949 -0.00172542 -0.00171446 -0.00171949 -0.00178668 -0.00179137 -0.00171949 -0.00172542 -0.00179137 -0.0017968 -0.00115288 -0.00115263 -0.00124075 -0.00124307 -0.00115263 -0.00115236 -0.00124307 -0.00124615 -0.00124075 -0.00124307 -0.00132761 -0.00133216 -0.00124307 -0.00124615 -0.00133216 -0.00133807 -0.00115236 -0.00115205 -0.00124615 -0.00125034 -0.00115205 -0.00115169 -0.00125034 -0.00125621 -0.00124615 -0.00125034 -0.00133807 -0.00134585 -0.00125034 -0.00125621 -0.00134585 -0.00135631 -0.00132761 -0.00133216 -0.00141259 -0.00141878 -0.00133216 -0.00133807 -0.00141878 -0.00142661 -0.00141259 -0.00141878 -0.00149506 -0.00150221 -0.00141878 -0.00142661 -0.00150221 -0.00151099 -0.00133807 -0.00134585 -0.00142661 -0.00143656 -0.00134585 -0.00135631 -0.00143656 -0.00144926 -0.00142661 -0.00143656 -0.00151099 -0.00152172 -0.00143656 -0.00144926 -0.00152172 -0.00153468 -0.00115169 -0.00115125 -0.00125621 -0.00126486 -0.00115125 -0.00115064 -0.00126486 -0.00127862 -0.00125621 -0.00126486 -0.00135631 -0.00137076 -0.00126486 -0.00127862 -0.00137076 -0.00139113 -0.00115064 -0.00114953 -0.00127862 -0.00130281 -0.00114953 -0.00114805 -0.00130281 -0.00135542 -0.00127862 -0.00130281 -0.00139113 -0.00142035 -0.00130281 -0.00135542 -0.00142035 -0.00145112 -0.00135631 -0.00137076 -0.00144926 -0.00146545 -0.00137076 -0.00139113 -0.00146545 -0.00148571 -0.00144926 -0.00146545 -0.00153468 -0.00155002 -0.00146545 -0.00148571 -0.00155002 -0.00156727 -0.00139113 -0.00142035 -0.00148571 -0.00150854 -0.00142035 -0.00145112 -0.00150854 -0.00153196 -0.00148571 -0.00150854 -0.00156727 -0.00158536 -0.00150854 -0.00153196 -0.00158536 -0.00160276 -0.00149506 -0.00150221 -0.0015747 -0.00158218 -0.00150221 -0.00151099 -0.00158218 -0.0015911 -0.0015747 -0.00158218 -0.00165145 -0.00165878 -0.00158218 -0.0015911 -0.00165878 -0.00166725 -0.00151099 -0.00152172 -0.0015911 -0.00160157 -0.00152172 -0.00153468 -0.00160157 -0.00161361 -0.0015911 -0.00160157 -0.00166725 -0.00167685 -0.00160157 -0.00161361 -0.00167685 -0.00168743 -0.00165145 -0.00165878 -0.00172542 -0.00173224 -0.00165878 -0.00166725 -0.00173224 -0.00173993 -0.00172542 -0.00173224 -0.0017968 -0.00180293 -0.00173224 -0.00173993 -0.00180293 -0.00180966 -0.00166725 -0.00167685 -0.00173993 -0.00174836 -0.00167685 -0.00168743 -0.00174836 -0.00175735 -0.00173993 -0.00174836 -0.00180966 -0.00181685 -0.00174836 -0.00175735 -0.00181685 -0.00182428 -0.00153468 -0.00155002 -0.00161361 -0.001627 -0.00155002 -0.00156727 -0.001627 -0.00164118 -0.00161361 -0.001627 -0.00168743 -0.00169867 -0.001627 -0.00164118 -0.00169867 -0.00171008 -0.00156727 -0.00158536 -0.00164118 -0.00165529 -0.00158536 -0.00160276 -0.00165529 -0.00166858 -0.00164118 -0.00165529 -0.00171008 -0.00172108 -0.00165529 -0.00166858 -0.00172108 -0.00173122 -0.00168743 -0.00169867 -0.00175735 -0.00176656 -0.00169867 -0.00171008 -0.00176656 -0.00177561 -0.00175735 -0.00176656 -0.00182428 -0.00183168 -0.00176656 -0.00177561 -0.00183168 -0.00183875 -0.00171008 -0.00172108 -0.00177561 -0.0017841 -0.00172108 -0.00173122 -0.0017841 -0.0017918 -0.00177561 -0.0017841 -0.00183875 -0.00184523 -0.0017841 -0.0017918 -0.00184523 -0.00185098 -0.00177429 -0.00177451 -0.00184532 -0.00184553 -0.00177451 -0.00177546 -0.00184553 -0.00184642 -0.00184532 -0.00184553 -0.00191466 -0.00191485 -0.00184553 -0.00184642 -0.00191485 -0.00191566 -0.00177546 -0.00177714 -0.00184642 -0.001848 -0.00177714 -0.00177956 -0.001848 -0.00185026 -0.00184642 -0.001848 -0.00191566 -0.00191709 -0.001848 -0.00185026 -0.00191709 -0.00191912 -0.00191466 -0.00191485 -0.00198237 -0.00198253 -0.00191485 -0.00191566 -0.00198253 -0.00198324 -0.00198237 -0.00198253 -0.00204852 -0.00204865 -0.00198253 -0.00198324 -0.00204865 -0.00204923 -0.00191566 -0.00191709 -0.00198324 -0.00198448 -0.00191709 -0.00191912 -0.00198448 -0.00198625 -0.00198324 -0.00198448 -0.00204923 -0.00205027 -0.00198448 -0.00198625 -0.00205027 -0.00205174 -0.00177956 -0.00178274 -0.00185026 -0.00185319 -0.00178274 -0.00178668 -0.00185319 -0.00185679 -0.00185026 -0.00185319 -0.00191912 -0.00192175 -0.00185319 -0.00185679 -0.00192175 -0.00192494 -0.00178668 -0.00179137 -0.00185679 -0.00186103 -0.00179137 -0.0017968 -0.00186103 -0.00186585 -0.00185679 -0.00186103 -0.00192494 -0.00192864 -0.00186103 -0.00186585 -0.00192864 -0.00193279 -0.00191912 -0.00192175 -0.00198625 -0.00198852 -0.00192175 -0.00192494 -0.00198852 -0.00199125 -0.00198625 -0.00198852 -0.00205174 -0.00205362 -0.00198852 -0.00199125 -0.00205362 -0.00205586 -0.00192494 -0.00192864 -0.00199125 -0.00199438 -0.00192864 -0.00193279 -0.00199438 -0.00199785 -0.00199125 -0.00199438 -0.00205586 -0.00205841 -0.00199438 -0.00199785 -0.00205841 -0.0020612 -0.00204852 -0.00204865 -0.00211323 -0.00211331 -0.00204865 -0.00204923 -0.00211331 -0.00211376 -0.00211323 -0.00211331 -0.00217661 -0.00217665 -0.00211331 -0.00211376 -0.00217665 -0.00217695 -0.00204923 -0.00205027 -0.00211376 -0.00211457 -0.00205027 -0.00205174 -0.00211457 -0.00211572 -0.00211376 -0.00211457 -0.00217695 -0.00217751 -0.00211457 -0.00211572 -0.00217751 -0.00217832 -0.00217661 -0.00217665 -0.00223883 -0.00223881 -0.00217665 -0.00217695 -0.00223881 -0.00223896 -0.00223883 -0.00223881 -0.0023 -0.0023 -0.00223881 -0.00223896 -0.0023 -0.0023 -0.00217695 -0.00217751 -0.00223896 -0.00223926 -0.00217751 -0.00217832 -0.00223926 -0.00223969 -0.00223896 -0.00223926 -0.0023 -0.0023 -0.00223926 -0.00223969 -0.0023 -0.0023 -0.00205174 -0.00205362 -0.00211572 -0.00211718 -0.00205362 -0.00205586 -0.00211718 -0.00211892 -0.00211572 -0.00211718 -0.00217832 -0.00217934 -0.00211718 -0.00211892 -0.00217934 -0.00218055 -0.00205586 -0.00205841 -0.00211892 -0.00212088 -0.00205841 -0.0020612 -0.00212088 -0.002123 -0.00211892 -0.00212088 -0.00218055 -0.0021819 -0.00212088 -0.002123 -0.0021819 -0.00218335 -0.00217832 -0.00217934 -0.00223969 -0.00224023 -0.00217934 -0.00218055 -0.00224023 -0.00224087 -0.00223969 -0.00224023 -0.0023 -0.0023 -0.00224023 -0.00224087 -0.0023 -0.0023 -0.00218055 -0.0021819 -0.00224087 -0.00224158 -0.0021819 -0.00218335 -0.00224158 -0.00224233 -0.00224087 -0.00224158 -0.0023 -0.0023 -0.00224158 -0.00224233 -0.0023 -0.0023 -0.0017968 -0.00180293 -0.00186585 -0.00187118 -0.00180293 -0.00180966 -0.00187118 -0.00187691 -0.00186585 -0.00187118 -0.00193279 -0.0019373 -0.00187118 -0.00187691 -0.0019373 -0.00194205 -0.00180966 -0.00181685 -0.00187691 -0.00188288 -0.00181685 -0.00182428 -0.00188288 -0.00188889 -0.00187691 -0.00188288 -0.00194205 -0.00194689 -0.00188288 -0.00188889 -0.00194689 -0.00195165 -0.00193279 -0.0019373 -0.00199785 -0.00200155 -0.0019373 -0.00194205 -0.00200155 -0.00200538 -0.00199785 -0.00200155 -0.0020612 -0.00206414 -0.00200155 -0.00200538 -0.00206414 -0.00206712 -0.00194205 -0.00194689 -0.00200538 -0.0020092 -0.00194689 -0.00195165 -0.0020092 -0.00201286 -0.00200538 -0.0020092 -0.00206712 -0.00207002 -0.0020092 -0.00201286 -0.00207002 -0.00207274 -0.00182428 -0.00183168 -0.00188889 -0.00189472 -0.00183168 -0.00183875 -0.00189472 -0.00190014 -0.00188889 -0.00189472 -0.00195165 -0.00195614 -0.00189472 -0.00190014 -0.00195614 -0.00196019 -0.00183875 -0.00184523 -0.00190014 -0.00190499 -0.00184523 -0.00185098 -0.00190499 -0.00190916 -0.00190014 -0.00190499 -0.00196019 -0.0019637 -0.00190499 -0.00190916 -0.0019637 -0.00196661 -0.00195165 -0.00195614 -0.00201286 -0.00201622 -0.00195614 -0.00196019 -0.00201622 -0.00201916 -0.00201286 -0.00201622 -0.00207274 -0.00207516 -0.00201622 -0.00201916 -0.00207516 -0.00207718 -0.00196019 -0.0019637 -0.00201916 -0.00202159 -0.0019637 -0.00196661 -0.00202159 -0.00202348 -0.00201916 -0.00202159 -0.00207718 -0.00207875 -0.00202159 -0.00202348 -0.00207875 -0.00207987 -0.0020612 -0.00206414 -0.002123 -0.0021252 -0.00206414 -0.00206712 -0.0021252 -0.0021274 -0.002123 -0.0021252 -0.00218335 -0.00218484 -0.0021252 -0.0021274 -0.00218484 -0.0021863 -0.00206712 -0.00207002 -0.0021274 -0.00212949 -0.00207002 -0.00207274 -0.00212949 -0.0021314 -0.0021274 -0.00212949 -0.0021863 -0.00218767 -0.00212949 -0.0021314 -0.00218767 -0.00218887 -0.00218335 -0.00218484 -0.00224233 -0.0022431 -0.00218484 -0.0021863 -0.0022431 -0.00224385 -0.00224233 -0.0022431 -0.0023 -0.0023 -0.0022431 -0.00224385 -0.0023 -0.0023 -0.0021863 -0.00218767 -0.00224385 -0.00224453 -0.00218767 -0.00218887 -0.00224453 -0.00224512 -0.00224385 -0.00224453 -0.0023 -0.0023 -0.00224453 -0.00224512 -0.0023 -0.0023 -0.00207274 -0.00207516 -0.0021314 -0.00213303 -0.00207516 -0.00207718 -0.00213303 -0.00213433 -0.0021314 -0.00213303 -0.00218887 -0.00218986 -0.00213303 -0.00213433 -0.00218986 -0.00219059 -0.00207718 -0.00207875 -0.00213433 -0.00213524 -0.00207875 -0.00207987 -0.00213524 -0.00213578 -0.00213433 -0.00213524 -0.00219059 -0.00219102 -0.00213524 -0.00213578 -0.00219102 -0.00219118 -0.00218887 -0.00218986 -0.00224512 -0.00224557 -0.00218986 -0.00219059 -0.00224557 -0.00224587 -0.00224512 -0.00224557 -0.0023 -0.0023 -0.00224557 -0.00224587 -0.0023 -0.0023 -0.00219059 -0.00219102 -0.00224587 -0.002246 -0.00219102 -0.00219118 -0.002246 -0.00224597 -0.00224587 -0.002246 -0.0023 -0.0023 -0.002246 -0.00224597 -0.0023 -0.0023 -0.00114805 -0.00132316 -0.00135542 -0.00139773 -0.00132316 -0.00142711 -0.00139773 -0.00145602 -0.00135542 -0.00139773 -0.00145112 -0.00148315 -0.00139773 -0.00145602 -0.00148315 -0.001514 -0.00142711 -0.00149772 -0.00145602 -0.00151095 -0.00149772 -0.00155115 -0.00151095 -0.00155788 -0.00145602 -0.00151095 -0.001514 -0.00154933 -0.00151095 -0.00155788 -0.00154933 -0.00158446 -0.00145112 -0.00148315 -0.00153196 -0.00155361 -0.00148315 -0.001514 -0.00155361 -0.00157541 -0.00153196 -0.00155361 -0.00160276 -0.00161898 -0.00155361 -0.00157541 -0.00161898 -0.00163464 -0.001514 -0.00154933 -0.00157541 -0.00159856 -0.00154933 -0.00158446 -0.00159856 -0.0016233 -0.00157541 -0.00159856 -0.00163464 -0.00165101 -0.00159856 -0.0016233 -0.00165101 -0.00166845 -0.00155115 -0.00159372 -0.00155788 -0.00159737 -0.00159372 -0.00162854 -0.00159737 -0.0016306 -0.00155788 -0.00159737 -0.00158446 -0.00161682 -0.00159737 -0.0016306 -0.00161682 -0.0016456 -0.00162854 -0.00165739 -0.0016306 -0.00165862 -0.00165739 -0.00168139 -0.00165862 -0.00168222 -0.0016306 -0.00165862 -0.0016456 -0.00167073 -0.00165862 -0.00168222 -0.00167073 -0.00169241 -0.00158446 -0.00161682 -0.0016233 -0.0016479 -0.00161682 -0.0016456 -0.0016479 -0.0016711 -0.0016233 -0.0016479 -0.00166845 -0.00168652 -0.0016479 -0.0016711 -0.00168652 -0.00170436 -0.0016456 -0.00167073 -0.0016711 -0.00169223 -0.00167073 -0.00169241 -0.00169223 -0.00171102 -0.0016711 -0.00169223 -0.00170436 -0.00172127 -0.00169223 -0.00171102 -0.00172127 -0.00173679 -0.00160276 -0.00161898 -0.00166858 -0.00168078 -0.00161898 -0.00163464 -0.00168078 -0.00169241 -0.00166858 -0.00168078 -0.00173122 -0.00174044 -0.00168078 -0.00169241 -0.00174044 -0.00174907 -0.00163464 -0.00165101 -0.00169241 -0.00170421 -0.00165101 -0.00166845 -0.00170421 -0.00171668 -0.00169241 -0.00170421 -0.00174907 -0.00175763 -0.00170421 -0.00171668 -0.00175763 -0.00176654 -0.00173122 -0.00174044 -0.0017918 -0.00179869 -0.00174044 -0.00174907 -0.00179869 -0.00180502 -0.0017918 -0.00179869 -0.00185098 -0.00185601 -0.00179869 -0.00180502 -0.00185601 -0.00186052 -0.00174907 -0.00175763 -0.00180502 -0.00181114 -0.00175763 -0.00176654 -0.00181114 -0.00181741 -0.00180502 -0.00181114 -0.00186052 -0.00186476 -0.00181114 -0.00181741 -0.00186476 -0.00186902 -0.00166845 -0.00168652 -0.00171668 -0.00172977 -0.00168652 -0.00170436 -0.00172977 -0.00174308 -0.00171668 -0.00172977 -0.00176654 -0.00177591 -0.00172977 -0.00174308 -0.00177591 -0.0017856 -0.00170436 -0.00172127 -0.00174308 -0.00175611 -0.00172127 -0.00173679 -0.00175611 -0.00176841 -0.00174308 -0.00175611 -0.0017856 -0.00179531 -0.00175611 -0.00176841 -0.00179531 -0.00180472 -0.00176654 -0.00177591 -0.00181741 -0.00182397 -0.00177591 -0.0017856 -0.00182397 -0.00183084 -0.00181741 -0.00182397 -0.00186902 -0.00187345 -0.00182397 -0.00183084 -0.00187345 -0.00187811 -0.0017856 -0.00179531 -0.00183084 -0.00183784 -0.00179531 -0.00180472 -0.00183784 -0.00184476 -0.00183084 -0.00183784 -0.00187811 -0.00188295 -0.00183784 -0.00184476 -0.00188295 -0.00188783 -0.00168139 -0.00170133 -0.00168222 -0.00170199 -0.00170133 -0.00171776 -0.00170199 -0.00171839 -0.00168222 -0.00170199 -0.00169241 -0.00171087 -0.00170199 -0.00171839 -0.00171087 -0.00172639 -0.00171776 -0.00173109 -0.00171839 -0.00173177 -0.00173109 -0.00174164 -0.00173177 -0.00174239 -0.00171839 -0.00173177 -0.00172639 -0.00173916 -0.00173177 -0.00174239 -0.00173916 -0.00174937 -0.00169241 -0.00171087 -0.00171102 -0.00172738 -0.00171087 -0.00172639 -0.00172738 -0.00174136 -0.00171102 -0.00172738 -0.00173679 -0.00175064 -0.00172738 -0.00174136 -0.00175064 -0.00176269 -0.00172639 -0.00173916 -0.00174136 -0.00175301 -0.00173916 -0.00174937 -0.00175301 -0.00176241 -0.00174136 -0.00175301 -0.00176269 -0.00177288 -0.00175301 -0.00176241 -0.00177288 -0.0017812 -0.00174164 -0.00174962 -0.00174239 -0.00175046 -0.00174962 -0.00175521 -0.00175046 -0.00175613 -0.00174239 -0.00175046 -0.00174937 -0.00175717 -0.00175046 -0.00175613 -0.00175717 -0.00176266 -0.00175521 -0.00175852 -0.00175613 -0.00175949 -0.00175852 -0.00175962 -0.00175949 -0.0017606 -0.00175613 -0.00175949 -0.00176266 -0.00176593 -0.00175949 -0.0017606 -0.00176593 -0.00176701 -0.00174937 -0.00175717 -0.00176241 -0.00176964 -0.00175717 -0.00176266 -0.00176964 -0.00177476 -0.00176241 -0.00176964 -0.0017812 -0.00178765 -0.00176964 -0.00177476 -0.00178765 -0.00179224 -0.00176266 -0.00176593 -0.00177476 -0.00177781 -0.00176593 -0.00176701 -0.00177781 -0.00177882 -0.00177476 -0.00177781 -0.00179224 -0.00179498 -0.00177781 -0.00177882 -0.00179498 -0.00179589 -0.00173679 -0.00175064 -0.00176841 -0.00177966 -0.00175064 -0.00176269 -0.00177966 -0.00178964 -0.00176841 -0.00177966 -0.00180472 -0.00181351 -0.00177966 -0.00178964 -0.00181351 -0.00182147 -0.00176269 -0.00177288 -0.00178964 -0.00179822 -0.00177288 -0.0017812 -0.00179822 -0.0018053 -0.00178964 -0.00179822 -0.00182147 -0.00182842 -0.00179822 -0.0018053 -0.00182842 -0.00183422 -0.00180472 -0.00181351 -0.00184476 -0.00185138 -0.00181351 -0.00182147 -0.00185138 -0.00185748 -0.00184476 -0.00185138 -0.00188783 -0.00189258 -0.00185138 -0.00185748 -0.00189258 -0.00189706 -0.00182147 -0.00182842 -0.00185748 -0.00186289 -0.00182842 -0.00183422 -0.00186289 -0.00186746 -0.00185748 -0.00186289 -0.00189706 -0.00190108 -0.00186289 -0.00186746 -0.00190108 -0.00190454 -0.0017812 -0.00178765 -0.0018053 -0.00181084 -0.00178765 -0.00179224 -0.00181084 -0.00181481 -0.0018053 -0.00181084 -0.00183422 -0.00183881 -0.00181084 -0.00181481 -0.00183881 -0.00184211 -0.00179224 -0.00179498 -0.00181481 -0.00181718 -0.00179498 -0.00179589 -0.00181718 -0.00181797 -0.00181481 -0.00181718 -0.00184211 -0.0018441 -0.00181718 -0.00181797 -0.0018441 -0.00184475 -0.00183422 -0.00183881 -0.00186746 -0.00187112 -0.00183881 -0.00184211 -0.00187112 -0.00187376 -0.00186746 -0.00187112 -0.00190454 -0.00190733 -0.00187112 -0.00187376 -0.00190733 -0.00190937 -0.00184211 -0.0018441 -0.00187376 -0.00187536 -0.0018441 -0.00184475 -0.00187536 -0.00187588 -0.00187376 -0.00187536 -0.00190937 -0.0019106 -0.00187536 -0.00187588 -0.0019106 -0.00191099 -0.00185098 -0.00185601 -0.00190916 -0.0019127 -0.00185601 -0.00186052 -0.0019127 -0.00191576 -0.00190916 -0.0019127 -0.00196661 -0.00196896 -0.0019127 -0.00191576 -0.00196896 -0.00197086 -0.00186052 -0.00186476 -0.00191576 -0.00191853 -0.00186476 -0.00186902 -0.00191853 -0.00192124 -0.00191576 -0.00191853 -0.00197086 -0.00197249 -0.00191853 -0.00192124 -0.00197249 -0.001974 -0.00196661 -0.00196896 -0.00202348 -0.00202489 -0.00196896 -0.00197086 -0.00202489 -0.0020259 -0.00202348 -0.00202489 -0.00207987 -0.00208056 -0.00202489 -0.0020259 -0.00208056 -0.00208091 -0.00197086 -0.00197249 -0.0020259 -0.00202665 -0.00197249 -0.001974 -0.00202665 -0.00202727 -0.0020259 -0.00202665 -0.00208091 -0.00208102 -0.00202665 -0.00202727 -0.00208102 -0.00208101 -0.00186902 -0.00187345 -0.00192124 -0.00192403 -0.00187345 -0.00187811 -0.00192403 -0.001927 -0.00192124 -0.00192403 -0.001974 -0.00197555 -0.00192403 -0.001927 -0.00197555 -0.00197722 -0.00187811 -0.00188295 -0.001927 -0.00193013 -0.00188295 -0.00188783 -0.00193013 -0.00193336 -0.001927 -0.00193013 -0.00197722 -0.00197904 -0.00193013 -0.00193336 -0.00197904 -0.00198099 -0.001974 -0.00197555 -0.00202727 -0.00202789 -0.00197555 -0.00197722 -0.00202789 -0.0020286 -0.00202727 -0.00202789 -0.00208101 -0.00208098 -0.00202789 -0.0020286 -0.00208098 -0.00208102 -0.00197722 -0.00197904 -0.0020286 -0.00202944 -0.00197904 -0.00198099 -0.00202944 -0.00203042 -0.0020286 -0.00202944 -0.00208102 -0.00208118 -0.00202944 -0.00203042 -0.00208118 -0.00208147 -0.00207987 -0.00208056 -0.00213578 -0.00213596 -0.00208056 -0.00208091 -0.00213596 -0.00213587 -0.00213578 -0.00213596 -0.00219118 -0.00219107 -0.00213596 -0.00213587 -0.00219107 -0.00219076 -0.00208091 -0.00208102 -0.00213587 -0.00213558 -0.00208102 -0.00208101 -0.00213558 -0