# vtk DataFile Version 3.0
#This file was generated by the deal.II library on 2018/7/10 at 10:46:48
ASCII
DATASET UNSTRUCTURED_GRID

POINTS 4096 double
0 0.5 0
0.03125 0.5 0
0 0.53125 0
0.03125 0.53125 0
0.03125 0.5 0
0.0625 0.5 0
0.03125 0.53125 0
0.0625 0.53125 0
0 0.53125 0
0.03125 0.53125 0
0 0.5625 0
0.03125 0.5625 0
0.03125 0.53125 0
0.0625 0.53125 0
0.03125 0.5625 0
0.0625 0.5625 0
0.0625 0.5 0
0.09375 0.5 0
0.0625 0.53125 0
0.09375 0.53125 0
0.09375 0.5 0
0.125 0.5 0
0.09375 0.53125 0
0.125 0.53125 0
0.0625 0.53125 0
0.09375 0.53125 0
0.0625 0.5625 0
0.09375 0.5625 0
0.09375 0.53125 0
0.125 0.53125 0
0.09375 0.5625 0
0.125 0.5625 0
0 0.5625 0
0.03125 0.5625 0
0 0.59375 0
0.03125 0.59375 0
0.03125 0.5625 0
0.0625 0.5625 0
0.03125 0.59375 0
0.0625 0.59375 0
0 0.59375 0
0.03125 0.59375 0
0 0.625 0
0.03125 0.625 0
0.03125 0.59375 0
0.0625 0.59375 0
0.03125 0.625 0
0.0625 0.625 0
0.0625 0.5625 0
0.09375 0.5625 0
0.0625 0.59375 0
0.09375 0.59375 0
0.09375 0.5625 0
0.125 0.5625 0
0.09375 0.59375 0
0.125 0.59375 0
0.0625 0.59375 0
0.09375 0.59375 0
0.0625 0.625 0
0.09375 0.625 0
0.09375 0.59375 0
0.125 0.59375 0
0.09375 0.625 0
0.125 0.625 0
0.125 0.5 0
0.15625 0.5 0
0.125 0.53125 0
0.15625 0.53125 0
0.15625 0.5 0
0.1875 0.5 0
0.15625 0.53125 0
0.1875 0.53125 0
0.125 0.53125 0
0.15625 0.53125 0
0.125 0.5625 0
0.15625 0.5625 0
0.15625 0.53125 0
0.1875 0.53125 0
0.15625 0.5625 0
0.1875 0.5625 0
0.1875 0.5 0
0.21875 0.5 0
0.1875 0.53125 0
0.21875 0.53125 0
0.21875 0.5 0
0.25 0.5 0
0.21875 0.53125 0
0.25 0.53125 0
0.1875 0.53125 0
0.21875 0.53125 0
0.1875 0.5625 0
0.21875 0.5625 0
0.21875 0.53125 0
0.25 0.53125 0
0.21875 0.5625 0
0.25 0.5625 0
0.125 0.5625 0
0.15625 0.5625 0
0.125 0.59375 0
0.15625 0.59375 0
0.15625 0.5625 0
0.1875 0.5625 0
0.15625 0.59375 0
0.1875 0.59375 0
0.125 0.59375 0
0.15625 0.59375 0
0.125 0.625 0
0.15625 0.625 0
0.15625 0.59375 0
0.1875 0.59375 0
0.15625 0.625 0
0.1875 0.625 0
0.1875 0.5625 0
0.21875 0.5625 0
0.1875 0.59375 0
0.21875 0.59375 0
0.21875 0.5625 0
0.25 0.5625 0
0.21875 0.59375 0
0.25 0.59375 0
0.1875 0.59375 0
0.21875 0.59375 0
0.1875 0.625 0
0.21875 0.625 0
0.21875 0.59375 0
0.25 0.59375 0
0.21875 0.625 0
0.25 0.625 0
0 0.625 0
0.03125 0.625 0
0 0.65625 0
0.03125 0.65625 0
0.03125 0.625 0
0.0625 0.625 0
0.03125 0.65625 0
0.0625 0.65625 0
0 0.65625 0
0.03125 0.65625 0
0 0.6875 0
0.03125 0.6875 0
0.03125 0.65625 0
0.0625 0.65625 0
0.03125 0.6875 0
0.0625 0.6875 0
0.0625 0.625 0
0.09375 0.625 0
0.0625 0.65625 0
0.09375 0.65625 0
0.09375 0.625 0
0.125 0.625 0
0.09375 0.65625 0
0.125 0.65625 0
0.0625 0.65625 0
0.09375 0.65625 0
0.0625 0.6875 0
0.09375 0.6875 0
0.09375 0.65625 0
0.125 0.65625 0
0.09375 0.6875 0
0.125 0.6875 0
0 0.6875 0
0.03125 0.6875 0
0 0.71875 0
0.03125 0.71875 0
0.03125 0.6875 0
0.0625 0.6875 0
0.03125 0.71875 0
0.0625 0.71875 0
0 0.71875 0
0.03125 0.71875 0
0 0.75 0
0.03125 0.75 0
0.03125 0.71875 0
0.0625 0.71875 0
0.03125 0.75 0
0.0625 0.75 0
0.0625 0.6875 0
0.09375 0.6875 0
0.0625 0.71875 0
0.09375 0.71875 0
0.09375 0.6875 0
0.125 0.6875 0
0.09375 0.71875 0
0.125 0.71875 0
0.0625 0.71875 0
0.09375 0.71875 0
0.0625 0.75 0
0.09375 0.75 0
0.09375 0.71875 0
0.125 0.71875 0
0.09375 0.75 0
0.125 0.75 0
0.125 0.625 0
0.15625 0.625 0
0.125 0.65625 0
0.15625 0.65625 0
0.15625 0.625 0
0.1875 0.625 0
0.15625 0.65625 0
0.1875 0.65625 0
0.125 0.65625 0
0.15625 0.65625 0
0.125 0.6875 0
0.15625 0.6875 0
0.15625 0.65625 0
0.1875 0.65625 0
0.15625 0.6875 0
0.1875 0.6875 0
0.1875 0.625 0
0.21875 0.625 0
0.1875 0.65625 0
0.21875 0.65625 0
0.21875 0.625 0
0.25 0.625 0
0.21875 0.65625 0
0.25 0.65625 0
0.1875 0.65625 0
0.21875 0.65625 0
0.1875 0.6875 0
0.21875 0.6875 0
0.21875 0.65625 0
0.25 0.65625 0
0.21875 0.6875 0
0.25 0.6875 0
0.125 0.6875 0
0.15625 0.6875 0
0.125 0.71875 0
0.15625 0.71875 0
0.15625 0.6875 0
0.1875 0.6875 0
0.15625 0.71875 0
0.1875 0.71875 0
0.125 0.71875 0
0.15625 0.71875 0
0.125 0.75 0
0.15625 0.75 0
0.15625 0.71875 0
0.1875 0.71875 0
0.15625 0.75 0
0.1875 0.75 0
0.1875 0.6875 0
0.21875 0.6875 0
0.1875 0.71875 0
0.21875 0.71875 0
0.21875 0.6875 0
0.25 0.6875 0
0.21875 0.71875 0
0.25 0.71875 0
0.1875 0.71875 0
0.21875 0.71875 0
0.1875 0.75 0
0.21875 0.75 0
0.21875 0.71875 0
0.25 0.71875 0
0.21875 0.75 0
0.25 0.75 0
0.25 0.5 0
0.28125 0.5 0
0.25 0.53125 0
0.28125 0.53125 0
0.28125 0.5 0
0.3125 0.5 0
0.28125 0.53125 0
0.3125 0.53125 0
0.25 0.53125 0
0.28125 0.53125 0
0.25 0.5625 0
0.28125 0.5625 0
0.28125 0.53125 0
0.3125 0.53125 0
0.28125 0.5625 0
0.3125 0.5625 0
0.3125 0.5 0
0.34375 0.5 0
0.3125 0.53125 0
0.34375 0.53125 0
0.34375 0.5 0
0.375 0.5 0
0.34375 0.53125 0
0.375 0.53125 0
0.3125 0.53125 0
0.34375 0.53125 0
0.3125 0.5625 0
0.34375 0.5625 0
0.34375 0.53125 0
0.375 0.53125 0
0.34375 0.5625 0
0.375 0.5625 0
0.25 0.5625 0
0.28125 0.5625 0
0.25 0.59375 0
0.28125 0.59375 0
0.28125 0.5625 0
0.3125 0.5625 0
0.28125 0.59375 0
0.3125 0.59375 0
0.25 0.59375 0
0.28125 0.59375 0
0.25 0.625 0
0.28125 0.625 0
0.28125 0.59375 0
0.3125 0.59375 0
0.28125 0.625 0
0.3125 0.625 0
0.3125 0.5625 0
0.34375 0.5625 0
0.3125 0.59375 0
0.34375 0.59375 0
0.34375 0.5625 0
0.375 0.5625 0
0.34375 0.59375 0
0.375 0.59375 0
0.3125 0.59375 0
0.34375 0.59375 0
0.3125 0.625 0
0.34375 0.625 0
0.34375 0.59375 0
0.375 0.59375 0
0.34375 0.625 0
0.375 0.625 0
0.375 0.5 0
0.40625 0.5 0
0.375 0.53125 0
0.40625 0.53125 0
0.40625 0.5 0
0.4375 0.5 0
0.40625 0.53125 0
0.4375 0.53125 0
0.375 0.53125 0
0.40625 0.53125 0
0.375 0.5625 0
0.40625 0.5625 0
0.40625 0.53125 0
0.4375 0.53125 0
0.40625 0.5625 0
0.4375 0.5625 0
0.4375 0.5 0
0.46875 0.5 0
0.4375 0.53125 0
0.46875 0.53125 0
0.46875 0.5 0
0.5 0.5 0
0.46875 0.53125 0
0.5 0.53125 0
0.4375 0.53125 0
0.46875 0.53125 0
0.4375 0.5625 0
0.46875 0.5625 0
0.46875 0.53125 0
0.5 0.53125 0
0.46875 0.5625 0
0.5 0.5625 0
0.375 0.5625 0
0.40625 0.5625 0
0.375 0.59375 0
0.40625 0.59375 0
0.40625 0.5625 0
0.4375 0.5625 0
0.40625 0.59375 0
0.4375 0.59375 0
0.375 0.59375 0
0.40625 0.59375 0
0.375 0.625 0
0.40625 0.625 0
0.40625 0.59375 0
0.4375 0.59375 0
0.40625 0.625 0
0.4375 0.625 0
0.4375 0.5625 0
0.46875 0.5625 0
0.4375 0.59375 0
0.46875 0.59375 0
0.46875 0.5625 0
0.5 0.5625 0
0.46875 0.59375 0
0.5 0.59375 0
0.4375 0.59375 0
0.46875 0.59375 0
0.4375 0.625 0
0.46875 0.625 0
0.46875 0.59375 0
0.5 0.59375 0
0.46875 0.625 0
0.5 0.625 0
0.25 0.625 0
0.28125 0.625 0
0.25 0.65625 0
0.28125 0.65625 0
0.28125 0.625 0
0.3125 0.625 0
0.28125 0.65625 0
0.3125 0.65625 0
0.25 0.65625 0
0.28125 0.65625 0
0.25 0.6875 0
0.28125 0.6875 0
0.28125 0.65625 0
0.3125 0.65625 0
0.28125 0.6875 0
0.3125 0.6875 0
0.3125 0.625 0
0.34375 0.625 0
0.3125 0.65625 0
0.34375 0.65625 0
0.34375 0.625 0
0.375 0.625 0
0.34375 0.65625 0
0.375 0.65625 0
0.3125 0.65625 0
0.34375 0.65625 0
0.3125 0.6875 0
0.34375 0.6875 0
0.34375 0.65625 0
0.375 0.65625 0
0.34375 0.6875 0
0.375 0.6875 0
0.25 0.6875 0
0.28125 0.6875 0
0.25 0.71875 0
0.28125 0.71875 0
0.28125 0.6875 0
0.3125 0.6875 0
0.28125 0.71875 0
0.3125 0.71875 0
0.25 0.71875 0
0.28125 0.71875 0
0.25 0.75 0
0.28125 0.75 0
0.28125 0.71875 0
0.3125 0.71875 0
0.28125 0.75 0
0.3125 0.75 0
0.3125 0.6875 0
0.34375 0.6875 0
0.3125 0.71875 0
0.34375 0.71875 0
0.34375 0.6875 0
0.375 0.6875 0
0.34375 0.71875 0
0.375 0.71875 0
0.3125 0.71875 0
0.34375 0.71875 0
0.3125 0.75 0
0.34375 0.75 0
0.34375 0.71875 0
0.375 0.71875 0
0.34375 0.75 0
0.375 0.75 0
0.375 0.625 0
0.40625 0.625 0
0.375 0.65625 0
0.40625 0.65625 0
0.40625 0.625 0
0.4375 0.625 0
0.40625 0.65625 0
0.4375 0.65625 0
0.375 0.65625 0
0.40625 0.65625 0
0.375 0.6875 0
0.40625 0.6875 0
0.40625 0.65625 0
0.4375 0.65625 0
0.40625 0.6875 0
0.4375 0.6875 0
0.4375 0.625 0
0.46875 0.625 0
0.4375 0.65625 0
0.46875 0.65625 0
0.46875 0.625 0
0.5 0.625 0
0.46875 0.65625 0
0.5 0.65625 0
0.4375 0.65625 0
0.46875 0.65625 0
0.4375 0.6875 0
0.46875 0.6875 0
0.46875 0.65625 0
0.5 0.65625 0
0.46875 0.6875 0
0.5 0.6875 0
0.375 0.6875 0
0.40625 0.6875 0
0.375 0.71875 0
0.40625 0.71875 0
0.40625 0.6875 0
0.4375 0.6875 0
0.40625 0.71875 0
0.4375 0.71875 0
0.375 0.71875 0
0.40625 0.71875 0
0.375 0.75 0
0.40625 0.75 0
0.40625 0.71875 0
0.4375 0.71875 0
0.40625 0.75 0
0.4375 0.75 0
0.4375 0.6875 0
0.46875 0.6875 0
0.4375 0.71875 0
0.46875 0.71875 0
0.46875 0.6875 0
0.5 0.6875 0
0.46875 0.71875 0
0.5 0.71875 0
0.4375 0.71875 0
0.46875 0.71875 0
0.4375 0.75 0
0.46875 0.75 0
0.46875 0.71875 0
0.5 0.71875 0
0.46875 0.75 0
0.5 0.75 0
0 0.75 0
0.03125 0.75 0
0 0.78125 0
0.03125 0.78125 0
0.03125 0.75 0
0.0625 0.75 0
0.03125 0.78125 0
0.0625 0.78125 0
0 0.78125 0
0.03125 0.78125 0
0 0.8125 0
0.03125 0.8125 0
0.03125 0.78125 0
0.0625 0.78125 0
0.03125 0.8125 0
0.0625 0.8125 0
0.0625 0.75 0
0.09375 0.75 0
0.0625 0.78125 0
0.09375 0.78125 0
0.09375 0.75 0
0.125 0.75 0
0.09375 0.78125 0
0.125 0.78125 0
0.0625 0.78125 0
0.09375 0.78125 0
0.0625 0.8125 0
0.09375 0.8125 0
0.09375 0.78125 0
0.125 0.78125 0
0.09375 0.8125 0
0.125 0.8125 0
0 0.8125 0
0.03125 0.8125 0
0 0.84375 0
0.03125 0.84375 0
0.03125 0.8125 0
0.0625 0.8125 0
0.03125 0.84375 0
0.0625 0.84375 0
0 0.84375 0
0.03125 0.84375 0
0 0.875 0
0.03125 0.875 0
0.03125 0.84375 0
0.0625 0.84375 0
0.03125 0.875 0
0.0625 0.875 0
0.0625 0.8125 0
0.09375 0.8125 0
0.0625 0.84375 0
0.09375 0.84375 0
0.09375 0.8125 0
0.125 0.8125 0
0.09375 0.84375 0
0.125 0.84375 0
0.0625 0.84375 0
0.09375 0.84375 0
0.0625 0.875 0
0.09375 0.875 0
0.09375 0.84375 0
0.125 0.84375 0
0.09375 0.875 0
0.125 0.875 0
0.125 0.75 0
0.15625 0.75 0
0.125 0.78125 0
0.15625 0.78125 0
0.15625 0.75 0
0.1875 0.75 0
0.15625 0.78125 0
0.1875 0.78125 0
0.125 0.78125 0
0.15625 0.78125 0
0.125 0.8125 0
0.15625 0.8125 0
0.15625 0.78125 0
0.1875 0.78125 0
0.15625 0.8125 0
0.1875 0.8125 0
0.1875 0.75 0
0.21875 0.75 0
0.1875 0.78125 0
0.21875 0.78125 0
0.21875 0.75 0
0.25 0.75 0
0.21875 0.78125 0
0.25 0.78125 0
0.1875 0.78125 0
0.21875 0.78125 0
0.1875 0.8125 0
0.21875 0.8125 0
0.21875 0.78125 0
0.25 0.78125 0
0.21875 0.8125 0
0.25 0.8125 0
0.125 0.8125 0
0.15625 0.8125 0
0.125 0.84375 0
0.15625 0.84375 0
0.15625 0.8125 0
[...]
POINT_DATA 4096
SCALARS State_InstatPDEProblemContainer_0 double 1
LOOKUP_TABLE default
-5.00198e-05 -5.00195e-05 -5.352e-05 -5.35235e-05 -5.00195e-05 -5.00185e-05 -5.35235e-05 -5.35343e-05 -5.352e-05 -5.35235e-05 -5.70068e-05 -5.7014e-05 -5.35235e-05 -5.35343e-05 -5.7014e-05 -5.70357e-05 -5.00185e-05 -5.00168e-05 -5.35343e-05 -5.35527e-05 -5.00168e-05 -5.00144e-05 -5.35527e-05 -5.35795e-05 -5.35343e-05 -5.35527e-05 -5.70357e-05 -5.70729e-05 -5.35527e-05 -5.35795e-05 -5.70729e-05 -5.7127e-05 -5.70068e-05 -5.7014e-05 -6.04662e-05 -6.04766e-05 -5.7014e-05 -5.70357e-05 -6.04766e-05 -6.0508e-05 -6.04662e-05 -6.04766e-05 -6.38857e-05 -6.38986e-05 -6.04766e-05 -6.0508e-05 -6.38986e-05 -6.39376e-05 -5.70357e-05 -5.70729e-05 -6.0508e-05 -6.05615e-05 -5.70729e-05 -5.7127e-05 -6.05615e-05 -6.06389e-05 -6.0508e-05 -6.05615e-05 -6.39376e-05 -6.4004e-05 -6.05615e-05 -6.06389e-05 -6.4004e-05 -6.40996e-05 -5.00144e-05 -5.00112e-05 -5.35795e-05 -5.36158e-05 -5.00112e-05 -5.00071e-05 -5.36158e-05 -5.36636e-05 -5.35795e-05 -5.36158e-05 -5.7127e-05 -5.72001e-05 -5.36158e-05 -5.36636e-05 -5.72001e-05 -5.72956e-05 -5.00071e-05 -5.0002e-05 -5.36636e-05 -5.37253e-05 -5.0002e-05 -4.99957e-05 -5.37253e-05 -5.38048e-05 -5.36636e-05 -5.37253e-05 -5.72956e-05 -5.74181e-05 -5.37253e-05 -5.38048e-05 -5.74181e-05 -5.75744e-05 -5.7127e-05 -5.72001e-05 -6.06389e-05 -6.07432e-05 -5.72001e-05 -5.72956e-05 -6.07432e-05 -6.08783e-05 -6.06389e-05 -6.07432e-05 -6.40996e-05 -6.42274e-05 -6.07432e-05 -6.08783e-05 -6.42274e-05 -6.43917e-05 -5.72956e-05 -5.74181e-05 -6.08783e-05 -6.10501e-05 -5.74181e-05 -5.75744e-05 -6.10501e-05 -6.12664e-05 -6.08783e-05 -6.10501e-05 -6.43917e-05 -6.4598e-05 -6.10501e-05 -6.12664e-05 -6.4598e-05 -6.48538e-05 -6.38857e-05 -6.38986e-05 -6.72543e-05 -6.7269e-05 -6.38986e-05 -6.39376e-05 -6.7269e-05 -6.73135e-05 -6.72543e-05 -6.7269e-05 -7.05636e-05 -7.05793e-05 -6.7269e-05 -6.73135e-05 -7.05793e-05 -7.06268e-05 -6.39376e-05 -6.4004e-05 -6.73135e-05 -6.73887e-05 -6.4004e-05 -6.40996e-05 -6.73887e-05 -6.74966e-05 -6.73135e-05 -6.73887e-05 -7.06268e-05 -7.0707e-05 -6.73887e-05 -6.74966e-05 -7.0707e-05 -7.08212e-05 -7.05636e-05 -7.05793e-05 -7.38071e-05 -7.38232e-05 -7.05793e-05 -7.06268e-05 -7.38232e-05 -7.38716e-05 -7.38071e-05 -7.38232e-05 -7.69809e-05 -7.69967e-05 -7.38232e-05 -7.38716e-05 -7.69967e-05 -7.7044e-05 -7.06268e-05 -7.0707e-05 -7.38716e-05 -7.39529e-05 -7.0707e-05 -7.08212e-05 -7.39529e-05 -7.4068e-05 -7.38716e-05 -7.39529e-05 -7.7044e-05 -7.71232e-05 -7.39529e-05 -7.4068e-05 -7.71232e-05 -7.72347e-05 -6.40996e-05 -6.42274e-05 -6.74966e-05 -6.76398e-05 -6.42274e-05 -6.43917e-05 -6.76398e-05 -6.78218e-05 -6.74966e-05 -6.76398e-05 -7.08212e-05 -7.09715e-05 -6.76398e-05 -6.78218e-05 -7.09715e-05 -7.11605e-05 -6.43917e-05 -6.4598e-05 -6.78218e-05 -6.80473e-05 -6.4598e-05 -6.48538e-05 -6.80473e-05 -6.83219e-05 -6.78218e-05 -6.80473e-05 -7.11605e-05 -7.13912e-05 -6.80473e-05 -6.83219e-05 -7.13912e-05 -7.16671e-05 -7.08212e-05 -7.09715e-05 -7.4068e-05 -7.42182e-05 -7.09715e-05 -7.11605e-05 -7.42182e-05 -7.44049e-05 -7.4068e-05 -7.42182e-05 -7.72347e-05 -7.73789e-05 -7.42182e-05 -7.44049e-05 -7.73789e-05 -7.75561e-05 -7.11605e-05 -7.13912e-05 -7.44049e-05 -7.46295e-05 -7.13912e-05 -7.16671e-05 -7.46295e-05 -7.48932e-05 -7.44049e-05 -7.46295e-05 -7.75561e-05 -7.77662e-05 -7.46295e-05 -7.48932e-05 -7.77662e-05 -7.80085e-05 -4.99957e-05 -4.9988e-05 -5.38048e-05 -5.39079e-05 -4.9988e-05 -4.99786e-05 -5.39079e-05 -5.40435e-05 -5.38048e-05 -5.39079e-05 -5.75744e-05 -5.77745e-05 -5.39079e-05 -5.40435e-05 -5.77745e-05 -5.8033e-05 -4.99786e-05 -4.99669e-05 -5.40435e-05 -5.42261e-05 -4.99669e-05 -4.99521e-05 -5.42261e-05 -5.4481e-05 -5.40435e-05 -5.42261e-05 -5.8033e-05 -5.83723e-05 -5.42261e-05 -5.4481e-05 -5.83723e-05 -5.88279e-05 -5.75744e-05 -5.77745e-05 -6.12664e-05 -6.15385e-05 -5.77745e-05 -5.8033e-05 -6.15385e-05 -6.18816e-05 -6.12664e-05 -6.15385e-05 -6.48538e-05 -6.51686e-05 -6.15385e-05 -6.18816e-05 -6.51686e-05 -6.55544e-05 -5.8033e-05 -5.83723e-05 -6.18816e-05 -6.23167e-05 -5.83723e-05 -5.88279e-05 -6.23167e-05 -6.2872e-05 -6.18816e-05 -6.23167e-05 -6.55544e-05 -6.60249e-05 -6.23167e-05 -6.2872e-05 -6.60249e-05 -6.65937e-05 -4.99521e-05 -4.99323e-05 -5.4481e-05 -5.48553e-05 -4.99323e-05 -4.99037e-05 -5.48553e-05 -5.54509e-05 -5.4481e-05 -5.48553e-05 -5.88279e-05 -5.94568e-05 -5.48553e-05 -5.54509e-05 -5.94568e-05 -6.0345e-05 -4.99037e-05 -4.98502e-05 -5.54509e-05 -5.65012e-05 -4.98502e-05 -4.97751e-05 -5.65012e-05 -5.87973e-05 -5.54509e-05 -5.65012e-05 -6.0345e-05 -6.16222e-05 -5.65012e-05 -5.87973e-05 -6.16222e-05 -6.29701e-05 -5.88279e-05 -5.94568e-05 -6.2872e-05 -6.358e-05 -5.94568e-05 -6.0345e-05 -6.358e-05 -6.44674e-05 -6.2872e-05 -6.358e-05 -6.65937e-05 -6.72669e-05 -6.358e-05 -6.44674e-05 -6.72669e-05 -6.80245e-05 -6.0345e-05 -6.16222e-05 -6.44674e-05 -6.54682e-05 -6.16222e-05 -6.29701e-05 -6.54682e-05 -6.64955e-05 -6.44674e-05 -6.54682e-05 -6.80245e-05 -6.88195e-05 -6.54682e-05 -6.64955e-05 -6.88195e-05 -6.95837e-05 -6.48538e-05 -6.51686e-05 -6.83219e-05 -6.86522e-05 -6.51686e-05 -6.55544e-05 -6.86522e-05 -6.90449e-05 -6.83219e-05 -6.86522e-05 -7.16671e-05 -7.19911e-05 -6.86522e-05 -6.90449e-05 -7.19911e-05 -7.23654e-05 -6.55544e-05 -6.60249e-05 -6.90449e-05 -6.95056e-05 -6.60249e-05 -6.65937e-05 -6.95056e-05 -7.00354e-05 -6.90449e-05 -6.95056e-05 -7.23654e-05 -7.27889e-05 -6.95056e-05 -7.00354e-05 -7.27889e-05 -7.32557e-05 -7.16671e-05 -7.19911e-05 -7.48932e-05 -7.5196e-05 -7.19911e-05 -7.23654e-05 -7.5196e-05 -7.55364e-05 -7.48932e-05 -7.5196e-05 -7.80085e-05 -7.82811e-05 -7.5196e-05 -7.55364e-05 -7.82811e-05 -7.85801e-05 -7.23654e-05 -7.27889e-05 -7.55364e-05 -7.59097e-05 -7.27889e-05 -7.32557e-05 -7.59097e-05 -7.6307e-05 -7.55364e-05 -7.59097e-05 -7.85801e-05 -7.8899e-05 -7.59097e-05 -7.6307e-05 -7.8899e-05 -7.92286e-05 -6.65937e-05 -6.72669e-05 -7.00354e-05 -7.06246e-05 -6.72669e-05 -6.80245e-05 -7.06246e-05 -7.1249e-05 -7.00354e-05 -7.06246e-05 -7.32557e-05 -7.37519e-05 -7.06246e-05 -7.1249e-05 -7.37519e-05 -7.42552e-05 -6.80245e-05 -6.88195e-05 -7.1249e-05 -7.18703e-05 -6.88195e-05 -6.95837e-05 -7.18703e-05 -7.2455e-05 -7.1249e-05 -7.18703e-05 -7.42552e-05 -7.47404e-05 -7.18703e-05 -7.2455e-05 -7.47404e-05 -7.51878e-05 -7.32557e-05 -7.37519e-05 -7.6307e-05 -7.67144e-05 -7.37519e-05 -7.42552e-05 -7.67144e-05 -7.71146e-05 -7.6307e-05 -7.67144e-05 -7.92286e-05 -7.95567e-05 -7.67144e-05 -7.71146e-05 -7.95567e-05 -7.98702e-05 -7.42552e-05 -7.47404e-05 -7.71146e-05 -7.74904e-05 -7.47404e-05 -7.51878e-05 -7.74904e-05 -7.78308e-05 -7.71146e-05 -7.74904e-05 -7.98702e-05 -8.01576e-05 -7.74904e-05 -7.78308e-05 -8.01576e-05 -8.04125e-05 -7.69809e-05 -7.69967e-05 -8.00832e-05 -8.00981e-05 -7.69967e-05 -7.7044e-05 -8.00981e-05 -8.01428e-05 -8.00832e-05 -8.00981e-05 -8.31141e-05 -8.31277e-05 -8.00981e-05 -8.01428e-05 -8.31277e-05 -8.31685e-05 -7.7044e-05 -7.71232e-05 -8.01428e-05 -8.02173e-05 -7.71232e-05 -7.72347e-05 -8.02173e-05 -8.03215e-05 -8.01428e-05 -8.02173e-05 -8.31685e-05 -8.32363e-05 -8.02173e-05 -8.03215e-05 -8.32363e-05 -8.33305e-05 -8.31141e-05 -8.31277e-05 -8.60754e-05 -8.60874e-05 -8.31277e-05 -8.31685e-05 -8.60874e-05 -8.61234e-05 -8.60754e-05 -8.60874e-05 -8.89705e-05 -8.89806e-05 -8.60874e-05 -8.61234e-05 -8.89806e-05 -8.90109e-05 -8.31685e-05 -8.32363e-05 -8.61234e-05 -8.61828e-05 -8.32363e-05 -8.33305e-05 -8.61828e-05 -8.6265e-05 -8.61234e-05 -8.61828e-05 -8.90109e-05 -8.90608e-05 -8.61828e-05 -8.6265e-05 -8.90608e-05 -8.91296e-05 -7.72347e-05 -7.73789e-05 -8.03215e-05 -8.04551e-05 -7.73789e-05 -7.75561e-05 -8.04551e-05 -8.06176e-05 -8.03215e-05 -8.04551e-05 -8.33305e-05 -8.34503e-05 -8.04551e-05 -8.06176e-05 -8.34503e-05 -8.35945e-05 -7.75561e-05 -7.77662e-05 -8.06176e-05 -8.08076e-05 -7.77662e-05 -7.80085e-05 -8.08076e-05 -8.10232e-05 -8.06176e-05 -8.08076e-05 -8.35945e-05 -8.37611e-05 -8.08076e-05 -8.10232e-05 -8.37611e-05 -8.39472e-05 -8.33305e-05 -8.34503e-05 -8.6265e-05 -8.63688e-05 -8.34503e-05 -8.35945e-05 -8.63688e-05 -8.64926e-05 -8.6265e-05 -8.63688e-05 -8.91296e-05 -8.92159e-05 -8.63688e-05 -8.64926e-05 -8.92159e-05 -8.93179e-05 -8.35945e-05 -8.37611e-05 -8.64926e-05 -8.6634e-05 -8.37611e-05 -8.39472e-05 -8.6634e-05 -8.67898e-05 -8.64926e-05 -8.6634e-05 -8.93179e-05 -8.94332e-05 -8.6634e-05 -8.67898e-05 -8.94332e-05 -8.95587e-05 -8.89705e-05 -8.89806e-05 -9.18039e-05 -9.18119e-05 -8.89806e-05 -8.90109e-05 -9.18119e-05 -9.18359e-05 -9.18039e-05 -9.18119e-05 -9.45816e-05 -9.45873e-05 -9.18119e-05 -9.18359e-05 -9.45873e-05 -9.46042e-05 -8.90109e-05 -8.90608e-05 -9.18359e-05 -9.18753e-05 -8.90608e-05 -8.91296e-05 -9.18753e-05 -9.19293e-05 -9.18359e-05 -9.18753e-05 -9.46042e-05 -9.46319e-05 -9.18753e-05 -9.19293e-05 -9.46319e-05 -9.46699e-05 -9.45816e-05 -9.45873e-05 -9.73107e-05 -9.73138e-05 -9.45873e-05 -9.46042e-05 -9.73138e-05 -9.73228e-05 -9.73107e-05 -9.73138e-05 -0.0001 -0.0001 -9.73138e-05 -9.73228e-05 -0.0001 -0.0001 -9.46042e-05 -9.46319e-05 -9.73228e-05 -9.73376e-05 -9.46319e-05 -9.46699e-05 -9.73376e-05 -9.73578e-05 -9.73228e-05 -9.73376e-05 -0.0001 -0.0001 -9.73376e-05 -9.73578e-05 -0.0001 -0.0001 -8.91296e-05 -8.92159e-05 -9.19293e-05 -9.19968e-05 -8.92159e-05 -8.93179e-05 -9.19968e-05 -9.2076e-05 -9.19293e-05 -9.19968e-05 -9.46699e-05 -9.47171e-05 -9.19968e-05 -9.2076e-05 -9.47171e-05 -9.47723e-05 -8.93179e-05 -8.94332e-05 -9.2076e-05 -9.21647e-05 -8.94332e-05 -8.95587e-05 -9.21647e-05 -9.22602e-05 -9.2076e-05 -9.21647e-05 -9.47723e-05 -9.48336e-05 -9.21647e-05 -9.22602e-05 -9.48336e-05 -9.4899e-05 -9.46699e-05 -9.47171e-05 -9.73578e-05 -9.73828e-05 -9.47171e-05 -9.47723e-05 -9.73828e-05 -9.74119e-05 -9.73578e-05 -9.73828e-05 -0.0001 -0.0001 -9.73828e-05 -9.74119e-05 -0.0001 -0.0001 -9.47723e-05 -9.48336e-05 -9.74119e-05 -9.74441e-05 -9.48336e-05 -9.4899e-05 -9.74441e-05 -9.74783e-05 -9.74119e-05 -9.74441e-05 -0.0001 -0.0001 -9.74441e-05 -9.74783e-05 -0.0001 -0.0001 -7.80085e-05 -7.82811e-05 -8.10232e-05 -8.1261e-05 -7.82811e-05 -7.85801e-05 -8.1261e-05 -8.15162e-05 -8.10232e-05 -8.1261e-05 -8.39472e-05 -8.4149e-05 -8.1261e-05 -8.15162e-05 -8.4149e-05 -8.4361e-05 -7.85801e-05 -7.8899e-05 -8.15162e-05 -8.17818e-05 -7.8899e-05 -7.92286e-05 -8.17818e-05 -8.20492e-05 -8.15162e-05 -8.17818e-05 -8.4361e-05 -8.45769e-05 -8.17818e-05 -8.20492e-05 -8.45769e-05 -8.47889e-05 -8.39472e-05 -8.4149e-05 -8.67898e-05 -8.69559e-05 -8.4149e-05 -8.4361e-05 -8.69559e-05 -8.71273e-05 -8.67898e-05 -8.69559e-05 -8.95587e-05 -8.96906e-05 -8.69559e-05 -8.71273e-05 -8.96906e-05 -8.98241e-05 -8.4361e-05 -8.45769e-05 -8.71273e-05 -8.7298e-05 -8.45769e-05 -8.47889e-05 -8.7298e-05 -8.74616e-05 -8.71273e-05 -8.7298e-05 -8.98241e-05 -8.99545e-05 -8.7298e-05 -8.74616e-05 -8.99545e-05 -9.00763e-05 -7.92286e-05 -7.95567e-05 -8.20492e-05 -8.23083e-05 -7.95567e-05 -7.98702e-05 -8.23083e-05 -8.25495e-05 -8.20492e-05 -8.23083e-05 -8.47889e-05 -8.49891e-05 -8.23083e-05 -8.25495e-05 -8.49891e-05 -8.51702e-05 -7.98702e-05 -8.01576e-05 -8.25495e-05 -8.27649e-05 -8.01576e-05 -8.04125e-05 -8.27649e-05 -8.29509e-05 -8.25495e-05 -8.27649e-05 -8.51702e-05 -8.53269e-05 -8.27649e-05 -8.29509e-05 -8.53269e-05 -8.54572e-05 -8.47889e-05 -8.49891e-05 -8.74616e-05 -8.76119e-05 -8.49891e-05 -8.51702e-05 -8.76119e-05 -8.77434e-05 -8.74616e-05 -8.76119e-05 -9.00763e-05 -9.01847e-05 -8.76119e-05 -8.77434e-05 -9.01847e-05 -9.02758e-05 -8.51702e-05 -8.53269e-05 -8.77434e-05 -8.78526e-05 -8.53269e-05 -8.54572e-05 -8.78526e-05 -8.79383e-05 -8.77434e-05 -8.78526e-05 -9.02758e-05 -9.0347e-05 -8.78526e-05 -8.79383e-05 -9.0347e-05 -9.03979e-05 -8.95587e-05 -8.96906e-05 -9.22602e-05 -9.23592e-05 -8.96906e-05 -8.98241e-05 -9.23592e-05 -9.24578e-05 -9.22602e-05 -9.23592e-05 -9.4899e-05 -9.49659e-05 -9.23592e-05 -9.24578e-05 -9.49659e-05 -9.50316e-05 -8.98241e-05 -8.99545e-05 -9.24578e-05 -9.2552e-05 -8.99545e-05 -9.00763e-05 -9.2552e-05 -9.26378e-05 -9.24578e-05 -9.2552e-05 -9.50316e-05 -9.50931e-05 -9.2552e-05 -9.26378e-05 -9.50931e-05 -9.51475e-05 -9.4899e-05 -9.49659e-05 -9.74783e-05 -9.75128e-05 -9.49659e-05 -9.50316e-05 -9.75128e-05 -9.75463e-05 -9.74783e-05 -9.75128e-05 -0.0001 -0.0001 -9.75128e-05 -9.75463e-05 -0.0001 -0.0001 -9.50316e-05 -9.50931e-05 -9.75463e-05 -9.7577e-05 -9.50931e-05 -9.51475e-05 -9.7577e-05 -9.76034e-05 -9.75463e-05 -9.7577e-05 -0.0001 -0.0001 -9.7577e-05 -9.76034e-05 -0.0001 -0.0001 -9.00763e-05 -9.01847e-05 -9.26378e-05 -9.27113e-05 -9.01847e-05 -9.02758e-05 -9.27113e-05 -9.27699e-05 -9.26378e-05 -9.27113e-05 -9.51475e-05 -9.51921e-05 -9.27113e-05 -9.27699e-05 -9.51921e-05 -9.52252e-05 -9.02758e-05 -9.0347e-05 -9.27699e-05 -9.28117e-05 -9.0347e-05 -9.03979e-05 -9.28117e-05 -9.28369e-05 -9.27699e-05 -9.28117e-05 -9.52252e-05 -9.52456e-05 -9.28117e-05 -9.28369e-05 -9.52456e-05 -9.52535e-05 -9.51475e-05 -9.51921e-05 -9.76034e-05 -9.7624e-05 -9.51921e-05 -9.52252e-05 -9.7624e-05 -9.76378e-05 -9.76034e-05 -9.7624e-05 -0.0001 -0.0001 -9.7624e-05 -9.76378e-05 -0.0001 -0.0001 -9.52252e-05 -9.52456e-05 -9.76378e-05 -9.76443e-05 -9.52456e-05 -9.52535e-05 -9.76443e-05 -9.76436e-05 -9.76378e-05 -9.76443e-05 -0.0001 -0.0001 -9.76443e-05 -9.76436e-05 -0.0001 -0.0001 -4.97751e-05 -5.74039e-05 -5.87973e-05 -6.06477e-05 -5.74039e-05 -6.19339e-05 -6.06477e-05 -6.31917e-05 -5.87973e-05 -6.06477e-05 -6.29701e-05 -6.43718e-05 -6.06477e-05 -6.31917e-05 -6.43718e-05 -6.57203e-05 -6.19339e-05 -6.50139e-05 -6.31917e-05 -6.55895e-05 -6.50139e-05 -6.73459e-05 -6.55895e-05 -6.76388e-05 -6.31917e-05 -6.55895e-05 -6.57203e-05 -6.72633e-05 -6.55895e-05 -6.76388e-05 -6.72633e-05 -6.8798e-05 -6.29701e-05 -6.43718e-05 -6.64955e-05 -6.74444e-05 -6.43718e-05 -6.57203e-05 -6.74444e-05 -6.83989e-05 -6.64955e-05 -6.74444e-05 -6.95837e-05 -7.0296e-05 -6.74444e-05 -6.83989e-05 -7.0296e-05 -7.09824e-05 -6.57203e-05 -6.72633e-05 -6.83989e-05 -6.9411e-05 -6.72633e-05 -6.8798e-05 -6.9411e-05 -7.04923e-05 -6.83989e-05 -6.9411e-05 -7.09824e-05 -7.16994e-05 -6.9411e-05 -7.04923e-05 -7.16994e-05 -7.24625e-05 -6.73459e-05 -6.92044e-05 -6.76388e-05 -6.93632e-05 -6.92044e-05 -7.07254e-05 -6.93632e-05 -7.0815e-05 -6.76388e-05 -6.93632e-05 -6.8798e-05 -7.02118e-05 -6.93632e-05 -7.0815e-05 -7.02118e-05 -7.14693e-05 -7.07254e-05 -7.19858e-05 -7.0815e-05 -7.20392e-05 -7.19858e-05 -7.3035e-05 -7.20392e-05 -7.30703e-05 -7.0815e-05 -7.20392e-05 -7.14693e-05 -7.25674e-05 -7.20392e-05 -7.30703e-05 -7.25674e-05 -7.35145e-05 -6.8798e-05 -7.02118e-05 -7.04923e-05 -7.15677e-05 -7.02118e-05 -7.14693e-05 -7.15677e-05 -7.25817e-05 -7.04923e-05 -7.15677e-05 -7.24625e-05 -7.32528e-05 -7.15677e-05 -7.25817e-05 -7.32528e-05 -7.40331e-05 -7.14693e-05 -7.25674e-05 -7.25817e-05 -7.35053e-05 -7.25674e-05 -7.35145e-05 -7.35053e-05 -7.43265e-05 -7.25817e-05 -7.35053e-05 -7.40331e-05 -7.47725e-05 -7.35053e-05 -7.43265e-05 -7.47725e-05 -7.54508e-05 -6.95837e-05 -7.0296e-05 -7.2455e-05 -7.29918e-05 -7.0296e-05 -7.09824e-05 -7.29918e-05 -7.35026e-05 -7.2455e-05 -7.29918e-05 -7.51878e-05 -7.55943e-05 -7.29918e-05 -7.35026e-05 -7.55943e-05 -7.59742e-05 -7.09824e-05 -7.16994e-05 -7.35026e-05 -7.40202e-05 -7.16994e-05 -7.24625e-05 -7.40202e-05 -7.45667e-05 -7.35026e-05 -7.40202e-05 -7.59742e-05 -7.63507e-05 -7.40202e-05 -7.45667e-05 -7.63507e-05 -7.67416e-05 -7.51878e-05 -7.55943e-05 -7.78308e-05 -7.81354e-05 -7.55943e-05 -7.59742e-05 -7.81354e-05 -7.84147e-05 -7.78308e-05 -7.81354e-05 -8.04125e-05 -8.06359e-05 -7.81354e-05 -7.84147e-05 -8.06359e-05 -8.08356e-05 -7.59742e-05 -7.63507e-05 -7.84147e-05 -7.86849e-05 -7.63507e-05 -7.67416e-05 -7.86849e-05 -7.89605e-05 -7.84147e-05 -7.86849e-05 -8.08356e-05 -8.10236e-05 -7.86849e-05 -7.89605e-05 -8.10236e-05 -8.12115e-05 -7.24625e-05 -7.32528e-05 -7.45667e-05 -7.51398e-05 -7.32528e-05 -7.40331e-05 -7.51398e-05 -7.57224e-05 -7.45667e-05 -7.51398e-05 -7.67416e-05 -7.71525e-05 -7.51398e-05 -7.57224e-05 -7.71525e-05 -7.75772e-05 -7.40331e-05 -7.47725e-05 -7.57224e-05 -7.62923e-05 -7.47725e-05 -7.54508e-05 -7.62923e-05 -7.68305e-05 -7.57224e-05 -7.62923e-05 -7.75772e-05 -7.80027e-05 -7.62923e-05 -7.68305e-05 -7.80027e-05 -7.84144e-05 -7.67416e-05 -7.71525e-05 -7.89605e-05 -7.92492e-05 -7.71525e-05 -7.75772e-05 -7.92492e-05 -7.95504e-05 -7.89605e-05 -7.92492e-05 -8.12115e-05 -8.14068e-05 -7.92492e-05 -7.95504e-05 -8.14068e-05 -8.16121e-05 -7.75772e-05 -7.80027e-05 -7.95504e-05 -7.98575e-05 -7.80027e-05 -7.84144e-05 -7.98575e-05 -8.01612e-05 -7.95504e-05 -7.98575e-05 -8.16121e-05 -8.18247e-05 -7.98575e-05 -8.01612e-05 -8.18247e-05 -8.20391e-05 -7.3035e-05 -7.39066e-05 -7.30703e-05 -7.39344e-05 -7.39066e-05 -7.46249e-05 -7.39344e-05 -7.46514e-05 -7.30703e-05 -7.39344e-05 -7.35145e-05 -7.43218e-05 -7.39344e-05 -7.46514e-05 -7.43218e-05 -7.49999e-05 -7.46249e-05 -7.5208e-05 -7.46514e-05 -7.52365e-05 -7.5208e-05 -7.56693e-05 -7.52365e-05 -7.57012e-05 -7.46514e-05 -7.52365e-05 -7.49999e-05 -7.55583e-05 -7.52365e-05 -7.57012e-05 -7.55583e-05 -7.6005e-05 -7.35145e-05 -7.43218e-05 -7.43265e-05 -7.5042e-05 -7.43218e-05 -7.49999e-05 -7.5042e-05 -7.5653e-05 -7.43265e-05 -7.5042e-05 -7.54508e-05 -7.60566e-05 -7.5042e-05 -7.5653e-05 -7.60566e-05 -7.65837e-05 -7.49999e-05 -7.55583e-05 -7.5653e-05 -7.61625e-05 -7.55583e-05 -7.6005e-05 -7.61625e-05 -7.65738e-05 -7.5653e-05 -7.61625e-05 -7.65837e-05 -7.70296e-05 -7.61625e-05 -7.65738e-05 -7.70296e-05 -7.73935e-05 -7.56693e-05 -7.60186e-05 -7.57012e-05 -7.60542e-05 -7.60186e-05 -7.62632e-05 -7.60542e-05 -7.63021e-05 -7.57012e-05 -7.60542e-05 -7.6005e-05 -7.63461e-05 -7.60542e-05 -7.63021e-05 -7.63461e-05 -7.65864e-05 -7.62632e-05 -7.64081e-05 -7.63021e-05 -7.64491e-05 -7.64081e-05 -7.64561e-05 -7.64491e-05 -7.64978e-05 -7.63021e-05 -7.64491e-05 -7.65864e-05 -7.67293e-05 -7.64491e-05 -7.64978e-05 -7.67293e-05 -7.67767e-05 -7.6005e-05 -7.63461e-05 -7.65738e-05 -7.689e-05 -7.63461e-05 -7.65864e-05 -7.689e-05 -7.71139e-05 -7.65738e-05 -7.689e-05 -7.73935e-05 -7.76756e-05 -7.689e-05 -7.71139e-05 -7.76756e-05 -7.78765e-05 -7.65864e-05 -7.67293e-05 -7.71139e-05 -7.72474e-05 -7.67293e-05 -7.67767e-05 -7.72474e-05 -7.72918e-05 -7.71139e-05 -7.72474e-05 -7.78765e-05 -7.79967e-05 -7.72474e-05 -7.72918e-05 -7.79967e-05 -7.80368e-05 -7.54508e-05 -7.60566e-05 -7.68305e-05 -7.73228e-05 -7.60566e-05 -7.65837e-05 -7.73228e-05 -7.77596e-05 -7.68305e-05 -7.73228e-05 -7.84144e-05 -7.87996e-05 -7.73228e-05 -7.77596e-05 -7.87996e-05 -7.91481e-05 -7.65837e-05 -7.70296e-05 -7.77596e-05 -7.81349e-05 -7.70296e-05 -7.73935e-05 -7.81349e-05 -7.8445e-05 -7.77596e-05 -7.81349e-05 -7.91481e-05 -7.94523e-05 -7.81349e-05 -7.8445e-05 -7.94523e-05 -7.97067e-05 -7.84144e-05 -7.87996e-05 -8.01612e-05 -8.04512e-05 -7.87996e-05 -7.91481e-05 -8.04512e-05 -8.07185e-05 -8.01612e-05 -8.04512e-05 -8.20391e-05 -8.2248e-05 -8.04512e-05 -8.07185e-05 -8.2248e-05 -8.24444e-05 -7.91481e-05 -7.94523e-05 -8.07185e-05 -8.09556e-05 -7.94523e-05 -7.97067e-05 -8.09556e-05 -8.11566e-05 -8.07185e-05 -8.09556e-05 -8.24444e-05 -8.26214e-05 -8.09556e-05 -8.11566e-05 -8.26214e-05 -8.27736e-05 -7.73935e-05 -7.76756e-05 -7.8445e-05 -7.86875e-05 -7.76756e-05 -7.78765e-05 -7.86875e-05 -7.88613e-05 -7.8445e-05 -7.86875e-05 -7.97067e-05 -7.99077e-05 -7.86875e-05 -7.88613e-05 -7.99077e-05 -8.00527e-05 -7.78765e-05 -7.79967e-05 -7.88613e-05 -7.89658e-05 -7.79967e-05 -7.80368e-05 -7.89658e-05 -7.90007e-05 -7.88613e-05 -7.89658e-05 -8.00527e-05 -8.01403e-05 -7.89658e-05 -7.90007e-05 -8.01403e-05 -8.01696e-05 -7.97067e-05 -7.99077e-05 -8.11566e-05 -8.13169e-05 -7.99077e-05 -8.00527e-05 -8.13169e-05 -8.14335e-05 -8.11566e-05 -8.13169e-05 -8.27736e-05 -8.28963e-05 -8.13169e-05 -8.14335e-05 -8.28963e-05 -8.29863e-05 -8.00527e-05 -8.01403e-05 -8.14335e-05 -8.15043e-05 -8.01403e-05 -8.01696e-05 -8.15043e-05 -8.1528e-05 -8.14335e-05 -8.15043e-05 -8.29863e-05 -8.30412e-05 -8.15043e-05 -8.1528e-05 -8.30412e-05 -8.30597e-05 -8.04125e-05 -8.06359e-05 -8.29509e-05 -8.31089e-05 -8.06359e-05 -8.08356e-05 -8.31089e-05 -8.32451e-05 -8.29509e-05 -8.31089e-05 -8.54572e-05 -8.55627e-05 -8.31089e-05 -8.32451e-05 -8.55627e-05 -8.56484e-05 -8.08356e-05 -8.10236e-05 -8.32451e-05 -8.33687e-05 -8.10236e-05 -8.12115e-05 -8