# vtk DataFile Version 3.0
#This file was generated by the deal.II library on 2018/7/10 at 10:46:54
ASCII
DATASET UNSTRUCTURED_GRID

POINTS 4096 double
0 0.5 0
0.03125 0.5 0
0 0.53125 0
0.03125 0.53125 0
0.03125 0.5 0
0.0625 0.5 0
0.03125 0.53125 0
0.0625 0.53125 0
0 0.53125 0
0.03125 0.53125 0
0 0.5625 0
0.03125 0.5625 0
0.03125 0.53125 0
0.0625 0.53125 0
0.03125 0.5625 0
0.0625 0.5625 0
0.0625 0.5 0
0.09375 0.5 0
0.0625 0.53125 0
0.09375 0.53125 0
0.09375 0.5 0
0.125 0.5 0
0.09375 0.53125 0
0.125 0.53125 0
0.0625 0.53125 0
0.09375 0.53125 0
0.0625 0.5625 0
0.09375 0.5625 0
0.09375 0.53125 0
0.125 0.53125 0
0.09375 0.5625 0
0.125 0.5625 0
0 0.5625 0
0.03125 0.5625 0
0 0.59375 0
0.03125 0.59375 0
0.03125 0.5625 0
0.0625 0.5625 0
0.03125 0.59375 0
0.0625 0.59375 0
0 0.59375 0
0.03125 0.59375 0
0 0.625 0
0.03125 0.625 0
0.03125 0.59375 0
0.0625 0.59375 0
0.03125 0.625 0
0.0625 0.625 0
0.0625 0.5625 0
0.09375 0.5625 0
0.0625 0.59375 0
0.09375 0.59375 0
0.09375 0.5625 0
0.125 0.5625 0
0.09375 0.59375 0
0.125 0.59375 0
0.0625 0.59375 0
0.09375 0.59375 0
0.0625 0.625 0
0.09375 0.625 0
0.09375 0.59375 0
0.125 0.59375 0
0.09375 0.625 0
0.125 0.625 0
0.125 0.5 0
0.15625 0.5 0
0.125 0.53125 0
0.15625 0.53125 0
0.15625 0.5 0
0.1875 0.5 0
0.15625 0.53125 0
0.1875 0.53125 0
0.125 0.53125 0
0.15625 0.53125 0
0.125 0.5625 0
0.15625 0.5625 0
0.15625 0.53125 0
0.1875 0.53125 0
0.15625 0.5625 0
0.1875 0.5625 0
0.1875 0.5 0
0.21875 0.5 0
0.1875 0.53125 0
0.21875 0.53125 0
0.21875 0.5 0
0.25 0.5 0
0.21875 0.53125 0
0.25 0.53125 0
0.1875 0.53125 0
0.21875 0.53125 0
0.1875 0.5625 0
0.21875 0.5625 0
0.21875 0.53125 0
0.25 0.53125 0
0.21875 0.5625 0
0.25 0.5625 0
0.125 0.5625 0
0.15625 0.5625 0
0.125 0.59375 0
0.15625 0.59375 0
0.15625 0.5625 0
0.1875 0.5625 0
0.15625 0.59375 0
0.1875 0.59375 0
0.125 0.59375 0
0.15625 0.59375 0
0.125 0.625 0
0.15625 0.625 0
0.15625 0.59375 0
0.1875 0.59375 0
0.15625 0.625 0
0.1875 0.625 0
0.1875 0.5625 0
0.21875 0.5625 0
0.1875 0.59375 0
0.21875 0.59375 0
0.21875 0.5625 0
0.25 0.5625 0
0.21875 0.59375 0
0.25 0.59375 0
0.1875 0.59375 0
0.21875 0.59375 0
0.1875 0.625 0
0.21875 0.625 0
0.21875 0.59375 0
0.25 0.59375 0
0.21875 0.625 0
0.25 0.625 0
0 0.625 0
0.03125 0.625 0
0 0.65625 0
0.03125 0.65625 0
0.03125 0.625 0
0.0625 0.625 0
0.03125 0.65625 0
0.0625 0.65625 0
0 0.65625 0
0.03125 0.65625 0
0 0.6875 0
0.03125 0.6875 0
0.03125 0.65625 0
0.0625 0.65625 0
0.03125 0.6875 0
0.0625 0.6875 0
0.0625 0.625 0
0.09375 0.625 0
0.0625 0.65625 0
0.09375 0.65625 0
0.09375 0.625 0
0.125 0.625 0
0.09375 0.65625 0
0.125 0.65625 0
0.0625 0.65625 0
0.09375 0.65625 0
0.0625 0.6875 0
0.09375 0.6875 0
0.09375 0.65625 0
0.125 0.65625 0
0.09375 0.6875 0
0.125 0.6875 0
0 0.6875 0
0.03125 0.6875 0
0 0.71875 0
0.03125 0.71875 0
0.03125 0.6875 0
0.0625 0.6875 0
0.03125 0.71875 0
0.0625 0.71875 0
0 0.71875 0
0.03125 0.71875 0
0 0.75 0
0.03125 0.75 0
0.03125 0.71875 0
0.0625 0.71875 0
0.03125 0.75 0
0.0625 0.75 0
0.0625 0.6875 0
0.09375 0.6875 0
0.0625 0.71875 0
0.09375 0.71875 0
0.09375 0.6875 0
0.125 0.6875 0
0.09375 0.71875 0
0.125 0.71875 0
0.0625 0.71875 0
0.09375 0.71875 0
0.0625 0.75 0
0.09375 0.75 0
0.09375 0.71875 0
0.125 0.71875 0
0.09375 0.75 0
0.125 0.75 0
0.125 0.625 0
0.15625 0.625 0
0.125 0.65625 0
0.15625 0.65625 0
0.15625 0.625 0
0.1875 0.625 0
0.15625 0.65625 0
0.1875 0.65625 0
0.125 0.65625 0
0.15625 0.65625 0
0.125 0.6875 0
0.15625 0.6875 0
0.15625 0.65625 0
0.1875 0.65625 0
0.15625 0.6875 0
0.1875 0.6875 0
0.1875 0.625 0
0.21875 0.625 0
0.1875 0.65625 0
0.21875 0.65625 0
0.21875 0.625 0
0.25 0.625 0
0.21875 0.65625 0
0.25 0.65625 0
0.1875 0.65625 0
0.21875 0.65625 0
0.1875 0.6875 0
0.21875 0.6875 0
0.21875 0.65625 0
0.25 0.65625 0
0.21875 0.6875 0
0.25 0.6875 0
0.125 0.6875 0
0.15625 0.6875 0
0.125 0.71875 0
0.15625 0.71875 0
0.15625 0.6875 0
0.1875 0.6875 0
0.15625 0.71875 0
0.1875 0.71875 0
0.125 0.71875 0
0.15625 0.71875 0
0.125 0.75 0
0.15625 0.75 0
0.15625 0.71875 0
0.1875 0.71875 0
0.15625 0.75 0
0.1875 0.75 0
0.1875 0.6875 0
0.21875 0.6875 0
0.1875 0.71875 0
0.21875 0.71875 0
0.21875 0.6875 0
0.25 0.6875 0
0.21875 0.71875 0
0.25 0.71875 0
0.1875 0.71875 0
0.21875 0.71875 0
0.1875 0.75 0
0.21875 0.75 0
0.21875 0.71875 0
0.25 0.71875 0
0.21875 0.75 0
0.25 0.75 0
0.25 0.5 0
0.28125 0.5 0
0.25 0.53125 0
0.28125 0.53125 0
0.28125 0.5 0
0.3125 0.5 0
0.28125 0.53125 0
0.3125 0.53125 0
0.25 0.53125 0
0.28125 0.53125 0
0.25 0.5625 0
0.28125 0.5625 0
0.28125 0.53125 0
0.3125 0.53125 0
0.28125 0.5625 0
0.3125 0.5625 0
0.3125 0.5 0
0.34375 0.5 0
0.3125 0.53125 0
0.34375 0.53125 0
0.34375 0.5 0
0.375 0.5 0
0.34375 0.53125 0
0.375 0.53125 0
0.3125 0.53125 0
0.34375 0.53125 0
0.3125 0.5625 0
0.34375 0.5625 0
0.34375 0.53125 0
0.375 0.53125 0
0.34375 0.5625 0
0.375 0.5625 0
0.25 0.5625 0
0.28125 0.5625 0
0.25 0.59375 0
0.28125 0.59375 0
0.28125 0.5625 0
0.3125 0.5625 0
0.28125 0.59375 0
0.3125 0.59375 0
0.25 0.59375 0
0.28125 0.59375 0
0.25 0.625 0
0.28125 0.625 0
0.28125 0.59375 0
0.3125 0.59375 0
0.28125 0.625 0
0.3125 0.625 0
0.3125 0.5625 0
0.34375 0.5625 0
0.3125 0.59375 0
0.34375 0.59375 0
0.34375 0.5625 0
0.375 0.5625 0
0.34375 0.59375 0
0.375 0.59375 0
0.3125 0.59375 0
0.34375 0.59375 0
0.3125 0.625 0
0.34375 0.625 0
0.34375 0.59375 0
0.375 0.59375 0
0.34375 0.625 0
0.375 0.625 0
0.375 0.5 0
0.40625 0.5 0
0.375 0.53125 0
0.40625 0.53125 0
0.40625 0.5 0
0.4375 0.5 0
0.40625 0.53125 0
0.4375 0.53125 0
0.375 0.53125 0
0.40625 0.53125 0
0.375 0.5625 0
0.40625 0.5625 0
0.40625 0.53125 0
0.4375 0.53125 0
0.40625 0.5625 0
0.4375 0.5625 0
0.4375 0.5 0
0.46875 0.5 0
0.4375 0.53125 0
0.46875 0.53125 0
0.46875 0.5 0
0.5 0.5 0
0.46875 0.53125 0
0.5 0.53125 0
0.4375 0.53125 0
0.46875 0.53125 0
0.4375 0.5625 0
0.46875 0.5625 0
0.46875 0.53125 0
0.5 0.53125 0
0.46875 0.5625 0
0.5 0.5625 0
0.375 0.5625 0
0.40625 0.5625 0
0.375 0.59375 0
0.40625 0.59375 0
0.40625 0.5625 0
0.4375 0.5625 0
0.40625 0.59375 0
0.4375 0.59375 0
0.375 0.59375 0
0.40625 0.59375 0
0.375 0.625 0
0.40625 0.625 0
0.40625 0.59375 0
0.4375 0.59375 0
0.40625 0.625 0
0.4375 0.625 0
0.4375 0.5625 0
0.46875 0.5625 0
0.4375 0.59375 0
0.46875 0.59375 0
0.46875 0.5625 0
0.5 0.5625 0
0.46875 0.59375 0
0.5 0.59375 0
0.4375 0.59375 0
0.46875 0.59375 0
0.4375 0.625 0
0.46875 0.625 0
0.46875 0.59375 0
0.5 0.59375 0
0.46875 0.625 0
0.5 0.625 0
0.25 0.625 0
0.28125 0.625 0
0.25 0.65625 0
0.28125 0.65625 0
0.28125 0.625 0
0.3125 0.625 0
0.28125 0.65625 0
0.3125 0.65625 0
0.25 0.65625 0
0.28125 0.65625 0
0.25 0.6875 0
0.28125 0.6875 0
0.28125 0.65625 0
0.3125 0.65625 0
0.28125 0.6875 0
0.3125 0.6875 0
0.3125 0.625 0
0.34375 0.625 0
0.3125 0.65625 0
0.34375 0.65625 0
0.34375 0.625 0
0.375 0.625 0
0.34375 0.65625 0
0.375 0.65625 0
0.3125 0.65625 0
0.34375 0.65625 0
0.3125 0.6875 0
0.34375 0.6875 0
0.34375 0.65625 0
0.375 0.65625 0
0.34375 0.6875 0
0.375 0.6875 0
0.25 0.6875 0
0.28125 0.6875 0
0.25 0.71875 0
0.28125 0.71875 0
0.28125 0.6875 0
0.3125 0.6875 0
0.28125 0.71875 0
0.3125 0.71875 0
0.25 0.71875 0
0.28125 0.71875 0
0.25 0.75 0
0.28125 0.75 0
0.28125 0.71875 0
0.3125 0.71875 0
0.28125 0.75 0
0.3125 0.75 0
0.3125 0.6875 0
0.34375 0.6875 0
0.3125 0.71875 0
0.34375 0.71875 0
0.34375 0.6875 0
0.375 0.6875 0
0.34375 0.71875 0
0.375 0.71875 0
0.3125 0.71875 0
0.34375 0.71875 0
0.3125 0.75 0
0.34375 0.75 0
0.34375 0.71875 0
0.375 0.71875 0
0.34375 0.75 0
0.375 0.75 0
0.375 0.625 0
0.40625 0.625 0
0.375 0.65625 0
0.40625 0.65625 0
0.40625 0.625 0
0.4375 0.625 0
0.40625 0.65625 0
0.4375 0.65625 0
0.375 0.65625 0
0.40625 0.65625 0
0.375 0.6875 0
0.40625 0.6875 0
0.40625 0.65625 0
0.4375 0.65625 0
0.40625 0.6875 0
0.4375 0.6875 0
0.4375 0.625 0
0.46875 0.625 0
0.4375 0.65625 0
0.46875 0.65625 0
0.46875 0.625 0
0.5 0.625 0
0.46875 0.65625 0
0.5 0.65625 0
0.4375 0.65625 0
0.46875 0.65625 0
0.4375 0.6875 0
0.46875 0.6875 0
0.46875 0.65625 0
0.5 0.65625 0
0.46875 0.6875 0
0.5 0.6875 0
0.375 0.6875 0
0.40625 0.6875 0
0.375 0.71875 0
0.40625 0.71875 0
0.40625 0.6875 0
0.4375 0.6875 0
0.40625 0.71875 0
0.4375 0.71875 0
0.375 0.71875 0
0.40625 0.71875 0
0.375 0.75 0
0.40625 0.75 0
0.40625 0.71875 0
0.4375 0.71875 0
0.40625 0.75 0
0.4375 0.75 0
0.4375 0.6875 0
0.46875 0.6875 0
0.4375 0.71875 0
0.46875 0.71875 0
0.46875 0.6875 0
0.5 0.6875 0
0.46875 0.71875 0
0.5 0.71875 0
0.4375 0.71875 0
0.46875 0.71875 0
0.4375 0.75 0
0.46875 0.75 0
0.46875 0.71875 0
0.5 0.71875 0
0.46875 0.75 0
0.5 0.75 0
0 0.75 0
0.03125 0.75 0
0 0.78125 0
0.03125 0.78125 0
0.03125 0.75 0
0.0625 0.75 0
0.03125 0.78125 0
0.0625 0.78125 0
0 0.78125 0
0.03125 0.78125 0
0 0.8125 0
0.03125 0.8125 0
0.03125 0.78125 0
0.0625 0.78125 0
0.03125 0.8125 0
0.0625 0.8125 0
0.0625 0.75 0
0.09375 0.75 0
0.0625 0.78125 0
0.09375 0.78125 0
0.09375 0.75 0
0.125 0.75 0
0.09375 0.78125 0
0.125 0.78125 0
0.0625 0.78125 0
0.09375 0.78125 0
0.0625 0.8125 0
0.09375 0.8125 0
0.09375 0.78125 0
0.125 0.78125 0
0.09375 0.8125 0
0.125 0.8125 0
0 0.8125 0
0.03125 0.8125 0
0 0.84375 0
0.03125 0.84375 0
0.03125 0.8125 0
0.0625 0.8125 0
0.03125 0.84375 0
0.0625 0.84375 0
0 0.84375 0
0.03125 0.84375 0
0 0.875 0
0.03125 0.875 0
0.03125 0.84375 0
0.0625 0.84375 0
0.03125 0.875 0
0.0625 0.875 0
0.0625 0.8125 0
0.09375 0.8125 0
0.0625 0.84375 0
0.09375 0.84375 0
0.09375 0.8125 0
0.125 0.8125 0
0.09375 0.84375 0
0.125 0.84375 0
0.0625 0.84375 0
0.09375 0.84375 0
0.0625 0.875 0
0.09375 0.875 0
0.09375 0.84375 0
0.125 0.84375 0
0.09375 0.875 0
0.125 0.875 0
0.125 0.75 0
0.15625 0.75 0
0.125 0.78125 0
0.15625 0.78125 0
0.15625 0.75 0
0.1875 0.75 0
0.15625 0.78125 0
0.1875 0.78125 0
0.125 0.78125 0
0.15625 0.78125 0
0.125 0.8125 0
0.15625 0.8125 0
0.15625 0.78125 0
0.1875 0.78125 0
0.15625 0.8125 0
0.1875 0.8125 0
0.1875 0.75 0
0.21875 0.75 0
0.1875 0.78125 0
0.21875 0.78125 0
0.21875 0.75 0
0.25 0.75 0
0.21875 0.78125 0
0.25 0.78125 0
0.1875 0.78125 0
0.21875 0.78125 0
0.1875 0.8125 0
0.21875 0.8125 0
0.21875 0.78125 0
0.25 0.78125 0
0.21875 0.8125 0
0.25 0.8125 0
0.125 0.8125 0
0.15625 0.8125 0
0.125 0.84375 0
0.15625 0.84375 0
0.15625 0.8125 0
[...]
POINT_DATA 4096
SCALARS State_InstatPDEProblemContainer_0 double 1
LOOKUP_TABLE default
-0.000852015 -0.000851924 -0.000911594 -0.00091157 -0.000851924 -0.00085183 -0.00091157 -0.000911677 -0.000911594 -0.00091157 -0.000970919 -0.000970959 -0.00091157 -0.000911677 -0.000970959 -0.000971256 -0.00085183 -0.000851731 -0.000911677 -0.000911922 -0.000851731 -0.000851627 -0.000911922 -0.000912318 -0.000911677 -0.000911922 -0.000971256 -0.000971823 -0.000911922 -0.000912318 -0.000971823 -0.000972684 -0.000970919 -0.000970959 -0.00102975 -0.00102985 -0.000970959 -0.000971256 -0.00102985 -0.00103031 -0.00102975 -0.00102985 -0.00108787 -0.00108802 -0.00102985 -0.00103031 -0.00108802 -0.00108861 -0.000971256 -0.000971823 -0.00103031 -0.00103116 -0.000971823 -0.000972684 -0.00103116 -0.00103242 -0.00103031 -0.00103116 -0.00108861 -0.00108968 -0.00103116 -0.00103242 -0.00108968 -0.00109125 -0.000851627 -0.000851516 -0.000912318 -0.000912884 -0.000851516 -0.000851396 -0.000912884 -0.00091365 -0.000912318 -0.000912884 -0.000972684 -0.000973877 -0.000912884 -0.00091365 -0.000973877 -0.000975457 -0.000851396 -0.000851265 -0.00091365 -0.000914661 -0.000851265 -0.00085112 -0.000914661 -0.000915981 -0.00091365 -0.000914661 -0.000975457 -0.000977503 -0.000914661 -0.000915981 -0.000977503 -0.000980132 -0.000972684 -0.000973877 -0.00103242 -0.00103414 -0.000973877 -0.000975457 -0.00103414 -0.00103639 -0.00103242 -0.00103414 -0.00109125 -0.00109337 -0.00103414 -0.00103639 -0.00109337 -0.00109612 -0.000975457 -0.000977503 -0.00103639 -0.00103927 -0.000977503 -0.000980132 -0.00103927 -0.00104292 -0.00103639 -0.00103927 -0.00109612 -0.00109958 -0.00103927 -0.00104292 -0.00109958 -0.00110389 -0.00108787 -0.00108802 -0.0011451 -0.00114528 -0.00108802 -0.00108861 -0.00114528 -0.00114597 -0.0011451 -0.00114528 -0.00120129 -0.00120149 -0.00114528 -0.00114597 -0.00120149 -0.00120224 -0.00108861 -0.00108968 -0.00114597 -0.00114719 -0.00108968 -0.00109125 -0.00114719 -0.00114896 -0.00114597 -0.00114719 -0.00120224 -0.00120354 -0.00114719 -0.00114896 -0.00120354 -0.00120542 -0.00120129 -0.00120149 -0.00125634 -0.00125655 -0.00120149 -0.00120224 -0.00125655 -0.00125731 -0.00125634 -0.00125655 -0.00131019 -0.00131039 -0.00125655 -0.00125731 -0.00131039 -0.00131114 -0.00120224 -0.00120354 -0.00125731 -0.00125864 -0.00120354 -0.00120542 -0.00125864 -0.00126054 -0.00125731 -0.00125864 -0.00131114 -0.00131243 -0.00125864 -0.00126054 -0.00131243 -0.00131427 -0.00109125 -0.00109337 -0.00114896 -0.00115135 -0.00109337 -0.00109612 -0.00115135 -0.00115439 -0.00114896 -0.00115135 -0.00120542 -0.00120792 -0.00115135 -0.00115439 -0.00120792 -0.00121108 -0.00109612 -0.00109958 -0.00115439 -0.00115818 -0.00109958 -0.00110389 -0.00115818 -0.0011628 -0.00115439 -0.00115818 -0.00121108 -0.00121495 -0.00115818 -0.0011628 -0.00121495 -0.00121959 -0.00120542 -0.00120792 -0.00126054 -0.00126303 -0.00120792 -0.00121108 -0.00126303 -0.00126615 -0.00126054 -0.00126303 -0.00131427 -0.00131666 -0.00126303 -0.00126615 -0.00131666 -0.00131962 -0.00121108 -0.00121495 -0.00126615 -0.00126992 -0.00121495 -0.00121959 -0.00126992 -0.00127434 -0.00126615 -0.00126992 -0.00131962 -0.00132313 -0.00126992 -0.00127434 -0.00132313 -0.00132719 -0.00085112 -0.000850958 -0.000915981 -0.00091771 -0.000850958 -0.000850774 -0.00091771 -0.00092 -0.000915981 -0.00091771 -0.000980132 -0.00098351 -0.00091771 -0.00092 -0.00098351 -0.000987888 -0.000850774 -0.000850559 -0.00092 -0.000923099 -0.000850559 -0.0008503 -0.000923099 -0.000927436 -0.00092 -0.000923099 -0.000987888 -0.000993647 -0.000923099 -0.000927436 -0.000993647 -0.00100138 -0.000980132 -0.00098351 -0.00104292 -0.00104752 -0.00098351 -0.000987888 -0.00104752 -0.00105332 -0.00104292 -0.00104752 -0.00110389 -0.00110921 -0.00104752 -0.00105332 -0.00110921 -0.00111573 -0.000987888 -0.000993647 -0.00105332 -0.0010607 -0.000993647 -0.00100138 -0.0010607 -0.00107011 -0.00105332 -0.0010607 -0.00111573 -0.00112369 -0.0010607 -0.00107011 -0.00112369 -0.00113331 -0.0008503 -0.000849967 -0.000927436 -0.000933813 -0.000849967 -0.000849499 -0.000933813 -0.000943962 -0.000927436 -0.000933813 -0.00100138 -0.00101207 -0.000933813 -0.000943962 -0.00101207 -0.00102714 -0.000849499 -0.00084864 -0.000943962 -0.000961833 -0.00084864 -0.000847461 -0.000961833 -0.00100078 -0.000943962 -0.000961833 -0.00102714 -0.00104879 -0.000961833 -0.00100078 -0.00104879 -0.00107161 -0.00100138 -0.00101207 -0.00107011 -0.00108211 -0.00101207 -0.00102714 -0.00108211 -0.00109713 -0.00107011 -0.00108211 -0.00113331 -0.00114469 -0.00108211 -0.00109713 -0.00114469 -0.0011575 -0.00102714 -0.00104879 -0.00109713 -0.00111407 -0.00104879 -0.00107161 -0.00111407 -0.00113145 -0.00109713 -0.00111407 -0.0011575 -0.00117094 -0.00111407 -0.00113145 -0.00117094 -0.00118386 -0.00110389 -0.00110921 -0.0011628 -0.00116837 -0.00110921 -0.00111573 -0.00116837 -0.001175 -0.0011628 -0.00116837 -0.00121959 -0.00122505 -0.00116837 -0.001175 -0.00122505 -0.00123136 -0.00111573 -0.00112369 -0.001175 -0.00118278 -0.00112369 -0.00113331 -0.00118278 -0.00119172 -0.001175 -0.00118278 -0.00123136 -0.0012385 -0.00118278 -0.00119172 -0.0012385 -0.00124637 -0.00121959 -0.00122505 -0.00127434 -0.00127943 -0.00122505 -0.00123136 -0.00127943 -0.00128516 -0.00127434 -0.00127943 -0.00132719 -0.00133177 -0.00127943 -0.00128516 -0.00133177 -0.00133679 -0.00123136 -0.0012385 -0.00128516 -0.00129145 -0.0012385 -0.00124637 -0.00129145 -0.00129814 -0.00128516 -0.00129145 -0.00133679 -0.00134216 -0.00129145 -0.00129814 -0.00134216 -0.0013477 -0.00113331 -0.00114469 -0.00119172 -0.00120167 -0.00114469 -0.0011575 -0.00120167 -0.00121222 -0.00119172 -0.00120167 -0.00124637 -0.00125474 -0.00120167 -0.00121222 -0.00125474 -0.00126323 -0.0011575 -0.00117094 -0.00121222 -0.00122271 -0.00117094 -0.00118386 -0.00122271 -0.00123258 -0.00121222 -0.00122271 -0.00126323 -0.00127141 -0.00122271 -0.00123258 -0.00127141 -0.00127895 -0.00124637 -0.00125474 -0.00129814 -0.001305 -0.00125474 -0.00126323 -0.001305 -0.00131174 -0.00129814 -0.001305 -0.0013477 -0.00135322 -0.001305 -0.00131174 -0.00135322 -0.00135849 -0.00126323 -0.00127141 -0.00131174 -0.00131807 -0.00127141 -0.00127895 -0.00131807 -0.0013238 -0.00131174 -0.00131807 -0.00135849 -0.00136332 -0.00131807 -0.0013238 -0.00136332 -0.00136761 -0.00131019 -0.00131039 -0.00136279 -0.00136299 -0.00131039 -0.00131114 -0.00136299 -0.00136369 -0.00136279 -0.00136299 -0.00141417 -0.00141435 -0.00136299 -0.00136369 -0.00141435 -0.00141499 -0.00131114 -0.00131243 -0.00136369 -0.0013649 -0.00131243 -0.00131427 -0.0013649 -0.00136662 -0.00136369 -0.0013649 -0.00141499 -0.00141609 -0.0013649 -0.00136662 -0.00141609 -0.00141764 -0.00141417 -0.00141435 -0.00146435 -0.0014645 -0.00141435 -0.00141499 -0.0014645 -0.00146507 -0.00146435 -0.0014645 -0.00151339 -0.00151352 -0.0014645 -0.00146507 -0.00151352 -0.00151398 -0.00141499 -0.00141609 -0.00146507 -0.00146603 -0.00141609 -0.00141764 -0.00146603 -0.00146737 -0.00146507 -0.00146603 -0.00151398 -0.00151479 -0.00146603 -0.00146737 -0.00151479 -0.00151591 -0.00131427 -0.00131666 -0.00136662 -0.00136884 -0.00131666 -0.00131962 -0.00136884 -0.00137154 -0.00136662 -0.00136884 -0.00141764 -0.00141962 -0.00136884 -0.00137154 -0.00141962 -0.00142202 -0.00131962 -0.00132313 -0.00137154 -0.00137472 -0.00132313 -0.00132719 -0.00137472 -0.00137833 -0.00137154 -0.00137472 -0.00142202 -0.0014248 -0.00137472 -0.00137833 -0.0014248 -0.00142791 -0.00141764 -0.00141962 -0.00146737 -0.00146909 -0.00141962 -0.00142202 -0.00146909 -0.00147115 -0.00146737 -0.00146909 -0.00151591 -0.00151734 -0.00146909 -0.00147115 -0.00151734 -0.00151903 -0.00142202 -0.0014248 -0.00147115 -0.0014735 -0.0014248 -0.00142791 -0.0014735 -0.0014761 -0.00147115 -0.0014735 -0.00151903 -0.00152095 -0.0014735 -0.0014761 -0.00152095 -0.00152304 -0.00151339 -0.00151352 -0.00156137 -0.00156146 -0.00151352 -0.00151398 -0.00156146 -0.00156183 -0.00156137 -0.00156146 -0.00160839 -0.00160844 -0.00156146 -0.00156183 -0.00160844 -0.0016087 -0.00151398 -0.00151479 -0.00156183 -0.00156246 -0.00151479 -0.00151591 -0.00156246 -0.00156334 -0.00156183 -0.00156246 -0.0016087 -0.00160914 -0.00156246 -0.00156334 -0.00160914 -0.00160975 -0.00160839 -0.00160844 -0.00165456 -0.00165457 -0.00160844 -0.0016087 -0.00165457 -0.0016547 -0.00165456 -0.00165457 -0.0017 -0.0017 -0.00165457 -0.0016547 -0.0017 -0.0017 -0.0016087 -0.00160914 -0.0016547 -0.00165494 -0.00160914 -0.00160975 -0.00165494 -0.00165527 -0.0016547 -0.00165494 -0.0017 -0.0017 -0.00165494 -0.00165527 -0.0017 -0.0017 -0.00151591 -0.00151734 -0.00156334 -0.00156445 -0.00151734 -0.00151903 -0.00156445 -0.00156576 -0.00156334 -0.00156445 -0.00160975 -0.00161053 -0.00156445 -0.00156576 -0.00161053 -0.00161144 -0.00151903 -0.00152095 -0.00156576 -0.00156724 -0.00152095 -0.00152304 -0.00156724 -0.00156883 -0.00156576 -0.00156724 -0.00161144 -0.00161246 -0.00156724 -0.00156883 -0.00161246 -0.00161355 -0.00160975 -0.00161053 -0.00165527 -0.00165568 -0.00161053 -0.00161144 -0.00165568 -0.00165616 -0.00165527 -0.00165568 -0.0017 -0.0017 -0.00165568 -0.00165616 -0.0017 -0.0017 -0.00161144 -0.00161246 -0.00165616 -0.0016567 -0.00161246 -0.00161355 -0.0016567 -0.00165726 -0.00165616 -0.0016567 -0.0017 -0.0017 -0.0016567 -0.00165726 -0.0017 -0.0017 -0.00132719 -0.00133177 -0.00137833 -0.00138231 -0.00133177 -0.00133679 -0.00138231 -0.0013866 -0.00137833 -0.00138231 -0.00142791 -0.00143129 -0.00138231 -0.0013866 -0.00143129 -0.00143484 -0.00133679 -0.00134216 -0.0013866 -0.00139105 -0.00134216 -0.0013477 -0.00139105 -0.00139554 -0.0013866 -0.00139105 -0.00143484 -0.00143846 -0.00139105 -0.00139554 -0.00143846 -0.00144202 -0.00142791 -0.00143129 -0.0014761 -0.00147888 -0.00143129 -0.00143484 -0.00147888 -0.00148175 -0.0014761 -0.00147888 -0.00152304 -0.00152524 -0.00147888 -0.00148175 -0.00152524 -0.00152748 -0.00143484 -0.00143846 -0.00148175 -0.00148461 -0.00143846 -0.00144202 -0.00148461 -0.00148735 -0.00148175 -0.00148461 -0.00152748 -0.00152966 -0.00148461 -0.00148735 -0.00152966 -0.00153169 -0.0013477 -0.00135322 -0.00139554 -0.0013999 -0.00135322 -0.00135849 -0.0013999 -0.00140395 -0.00139554 -0.0013999 -0.00144202 -0.00144537 -0.0013999 -0.00140395 -0.00144537 -0.00144841 -0.00135849 -0.00136332 -0.00140395 -0.00140756 -0.00136332 -0.00136761 -0.00140756 -0.00141068 -0.00140395 -0.00140756 -0.00144841 -0.00145103 -0.00140756 -0.00141068 -0.00145103 -0.00145321 -0.00144202 -0.00144537 -0.00148735 -0.00148986 -0.00144537 -0.00144841 -0.00148986 -0.00149206 -0.00148735 -0.00148986 -0.00153169 -0.00153351 -0.00148986 -0.00149206 -0.00153351 -0.00153502 -0.00144841 -0.00145103 -0.00149206 -0.00149389 -0.00145103 -0.00145321 -0.00149389 -0.00149531 -0.00149206 -0.00149389 -0.00153502 -0.00153621 -0.00149389 -0.00149531 -0.00153621 -0.00153705 -0.00152304 -0.00152524 -0.00156883 -0.00157048 -0.00152524 -0.00152748 -0.00157048 -0.00157213 -0.00156883 -0.00157048 -0.00161355 -0.00161467 -0.00157048 -0.00157213 -0.00161467 -0.00161577 -0.00152748 -0.00152966 -0.00157213 -0.00157371 -0.00152966 -0.00153169 -0.00157371 -0.00157514 -0.00157213 -0.00157371 -0.00161577 -0.00161679 -0.00157371 -0.00157514 -0.00161679 -0.0016177 -0.00161355 -0.00161467 -0.00165726 -0.00165784 -0.00161467 -0.00161577 -0.00165784 -0.0016584 -0.00165726 -0.00165784 -0.0017 -0.0017 -0.00165784 -0.0016584 -0.0017 -0.0017 -0.00161577 -0.00161679 -0.0016584 -0.00165891 -0.00161679 -0.0016177 -0.00165891 -0.00165935 -0.0016584 -0.00165891 -0.0017 -0.0017 -0.00165891 -0.00165935 -0.0017 -0.0017 -0.00153169 -0.00153351 -0.00157514 -0.00157636 -0.00153351 -0.00153502 -0.00157636 -0.00157734 -0.00157514 -0.00157636 -0.0016177 -0.00161845 -0.00157636 -0.00157734 -0.00161845 -0.00161899 -0.00153502 -0.00153621 -0.00157734 -0.00157803 -0.00153621 -0.00153705 -0.00157803 -0.00157844 -0.00157734 -0.00157803 -0.00161899 -0.00161933 -0.00157803 -0.00157844 -0.00161933 -0.00161945 -0.0016177 -0.00161845 -0.00165935 -0.0016597 -0.00161845 -0.00161899 -0.0016597 -0.00165992 -0.00165935 -0.0016597 -0.0017 -0.0017 -0.0016597 -0.00165992 -0.0017 -0.0017 -0.00161899 -0.00161933 -0.00165992 -0.00166003 -0.00161933 -0.00161945 -0.00166003 -0.00166001 -0.00165992 -0.00166003 -0.0017 -0.0017 -0.00166003 -0.00166001 -0.0017 -0.0017 -0.000847461 -0.00097701 -0.00100078 -0.00103214 -0.00097701 -0.00105392 -0.00103214 -0.0010753 -0.00100078 -0.00103214 -0.00107161 -0.00109536 -0.00103214 -0.0010753 -0.00109536 -0.00111822 -0.00105392 -0.00110619 -0.0010753 -0.00111597 -0.00110619 -0.00114575 -0.00111597 -0.00115073 -0.0010753 -0.00111597 -0.00111822 -0.00114438 -0.00111597 -0.00115073 -0.00114438 -0.0011704 -0.00107161 -0.00109536 -0.00113145 -0.00114751 -0.00109536 -0.00111822 -0.00114751 -0.00116368 -0.00113145 -0.00114751 -0.00118386 -0.0011959 -0.00114751 -0.00116368 -0.0011959 -0.00120752 -0.00111822 -0.00114438 -0.00116368 -0.00118083 -0.00114438 -0.0011704 -0.00118083 -0.00119916 -0.00116368 -0.00118083 -0.00120752 -0.00121966 -0.00118083 -0.00119916 -0.00121966 -0.00123258 -0.00114575 -0.00117728 -0.00115073 -0.00117998 -0.00117728 -0.00120307 -0.00117998 -0.00120459 -0.00115073 -0.00117998 -0.0011704 -0.00119438 -0.00117998 -0.00120459 -0.00119438 -0.0012157 -0.00120307 -0.00122444 -0.00120459 -0.00122535 -0.00122444 -0.00124222 -0.00122535 -0.00124283 -0.00120459 -0.00122535 -0.0012157 -0.00123431 -0.00122535 -0.00124283 -0.00123431 -0.00125037 -0.0011704 -0.00119438 -0.00119916 -0.00121739 -0.00119438 -0.0012157 -0.00121739 -0.00123457 -0.00119916 -0.00121739 -0.00123258 -0.00124598 -0.00121739 -0.00123457 -0.00124598 -0.0012592 -0.0012157 -0.00123431 -0.00123457 -0.00125023 -0.00123431 -0.00125037 -0.00125023 -0.00126415 -0.00123457 -0.00125023 -0.0012592 -0.00127173 -0.00125023 -0.00126415 -0.00127173 -0.00128323 -0.00118386 -0.0011959 -0.00123258 -0.00124165 -0.0011959 -0.00120752 -0.00124165 -0.00125028 -0.00123258 -0.00124165 -0.00127895 -0.00128581 -0.00124165 -0.00125028 -0.00128581 -0.00129223 -0.00120752 -0.00121966 -0.00125028 -0.00125904 -0.00121966 -0.00123258 -0.00125904 -0.00126829 -0.00125028 -0.00125904 -0.00129223 -0.00129859 -0.00125904 -0.00126829 -0.00129859 -0.0013052 -0.00127895 -0.00128581 -0.0013238 -0.00132893 -0.00128581 -0.00129223 -0.00132893 -0.00133364 -0.0013238 -0.00132893 -0.00136761 -0.00137137 -0.00132893 -0.00133364 -0.00137137 -0.00137472 -0.00129223 -0.00129859 -0.00133364 -0.0013382 -0.00129859 -0.0013052 -0.0013382 -0.00134285 -0.00133364 -0.0013382 -0.00137472 -0.00137789 -0.0013382 -0.00134285 -0.00137789 -0.00138105 -0.00123258 -0.00124598 -0.00126829 -0.001278 -0.00124598 -0.0012592 -0.001278 -0.00128787 -0.00126829 -0.001278 -0.0013052 -0.00131215 -0.001278 -0.00128787 -0.00131215 -0.00131934 -0.0012592 -0.00127173 -0.00128787 -0.00129752 -0.00127173 -0.00128323 -0.00129752 -0.00130664 -0.00128787 -0.00129752 -0.00131934 -0.00132654 -0.00129752 -0.00130664 -0.00132654 -0.00133352 -0.0013052 -0.00131215 -0.00134285 -0.00134773 -0.00131215 -0.00131934 -0.00134773 -0.00135282 -0.00134285 -0.00134773 -0.00138105 -0.00138435 -0.00134773 -0.00135282 -0.00138435 -0.00138782 -0.00131934 -0.00132654 -0.00135282 -0.00135802 -0.00132654 -0.00133352 -0.00135802 -0.00136316 -0.00135282 -0.00135802 -0.00138782 -0.00139141 -0.00135802 -0.00136316 -0.00139141 -0.00139503 -0.00124222 -0.001257 -0.00124283 -0.00125748 -0.001257 -0.00126917 -0.00125748 -0.00126963 -0.00124283 -0.00125748 -0.00125037 -0.00126406 -0.00125748 -0.00126963 -0.00126406 -0.00127555 -0.00126917 -0.00127906 -0.00126963 -0.00127955 -0.00127906 -0.00128687 -0.00127955 -0.00128742 -0.00126963 -0.00127955 -0.00127555 -0.00128501 -0.00127955 -0.00128742 -0.00128501 -0.00129258 -0.00125037 -0.00126406 -0.00126415 -0.00127628 -0.00126406 -0.00127555 -0.00127628 -0.00128663 -0.00126415 -0.00127628 -0.00128323 -0.00129349 -0.00127628 -0.00128663 -0.00129349 -0.00130243 -0.00127555 -0.00128501 -0.00128663 -0.00129527 -0.00128501 -0.00129258 -0.00129527 -0.00130224 -0.00128663 -0.00129527 -0.00130243 -0.00130998 -0.00129527 -0.00130224 -0.00130998 -0.00131615 -0.00128687 -0.00129279 -0.00128742 -0.0012934 -0.00129279 -0.00129693 -0.0012934 -0.0012976 -0.00128742 -0.0012934 -0.00129258 -0.00129836 -0.0012934 -0.0012976 -0.00129836 -0.00130243 -0.00129693 -0.00129939 -0.0012976 -0.00130009 -0.00129939 -0.0013002 -0.00130009 -0.00130092 -0.0012976 -0.00130009 -0.00130243 -0.00130485 -0.00130009 -0.00130092 -0.00130485 -0.00130566 -0.00129258 -0.00129836 -0.00130224 -0.00130759 -0.00129836 -0.00130243 -0.00130759 -0.00131139 -0.00130224 -0.00130759 -0.00131615 -0.00132092 -0.00130759 -0.00131139 -0.00132092 -0.00132433 -0.00130243 -0.00130485 -0.00131139 -0.00131365 -0.00130485 -0.00130566 -0.00131365 -0.0013144 -0.00131139 -0.00131365 -0.00132433 -0.00132636 -0.00131365 -0.0013144 -0.00132636 -0.00132704 -0.00128323 -0.00129349 -0.00130664 -0.00131498 -0.00129349 -0.00130243 -0.00131498 -0.00132238 -0.00130664 -0.00131498 -0.00133352 -0.00134004 -0.00131498 -0.00132238 -0.00134004 -0.00134594 -0.00130243 -0.00130998 -0.00132238 -0.00132874 -0.00130998 -0.00131615 -0.00132874 -0.00133399 -0.00132238 -0.00132874 -0.00134594 -0.00135109 -0.00132874 -0.00133399 -0.00135109 -0.0013554 -0.00133352 -0.00134004 -0.00136316 -0.00136807 -0.00134004 -0.00134594 -0.00136807 -0.00137259 -0.00136316 -0.00136807 -0.00139503 -0.00139857 -0.00136807 -0.00137259 -0.00139857 -0.00140189 -0.00134594 -0.00135109 -0.00137259 -0.00137661 -0.00135109 -0.0013554 -0.00137661 -0.00138 -0.00137259 -0.00137661 -0.00140189 -0.00140488 -0.00137661 -0.00138 -0.00140488 -0.00140745 -0.00131615 -0.00132092 -0.00133399 -0.00133809 -0.00132092 -0.00132433 -0.00133809 -0.00134104 -0.00133399 -0.00133809 -0.0013554 -0.0013588 -0.00133809 -0.00134104 -0.0013588 -0.00136125 -0.00132433 -0.00132636 -0.00134104 -0.0013428 -0.00132636 -0.00132704 -0.0013428 -0.00134339 -0.00134104 -0.0013428 -0.00136125 -0.00136273 -0.0013428 -0.00134339 -0.00136273 -0.00136322 -0.0013554 -0.0013588 -0.00138 -0.00138271 -0.0013588 -0.00136125 -0.00138271 -0.00138468 -0.00138 -0.00138271 -0.00140745 -0.00140952 -0.00138271 -0.00138468 -0.00140952 -0.00141104 -0.00136125 -0.00136273 -0.00138468 -0.00138588 -0.00136273 -0.00136322 -0.00138588 -0.00138627 -0.00138468 -0.00138588 -0.00141104 -0.00141196 -0.00138588 -0.00138627 -0.00141196 -0.00141226 -0.00136761 -0.00137137 -0.00141068 -0.00141333 -0.00137137 -0.00137472 -0.00141333 -0.00141562 -0.00141068 -0.00141333 -0.00145321 -0.00145497 -0.00141333 -0.00141562 -0.00145497 -0.0014564 -0.00137472 -0.00137789 -0.00141562 -0.00141769 -0.00137789 -0.00138105 -0.00141769 -0.00141971 -0.00141562 -0.00141769 -0.0014564 -0.00145762 -0.00141769 -0.00141971 -0.00145762 -0.00145876 -0.00145321 -0.00145497 -0.00149531 -0.00149638 -0.00145497 -0.0014564 -0.00149638 -0.00149714 -0.00149531 -0.00149638 -0.00153705 -0.00153758 -0.00149638 -0.00149714 -0.00153758 -0.00153785 -0.0014564 -0.00145762 -0.00149714 -0.00149771 -0.00145762 -0.00145876 -0.00149771 -0.00149818 -0.00149714 -0.00149771 -0.00153785 -0.00153795 -0.00149771 -0.00149818 -0.00153795 -0.00153795 -0.00138105 -0.00138435 -0.00141971 -0.00142179 -0.00138435 -0.00138782 -0.00142179 -0.001424 -0.00141971 -0.00142179 -0.00145876 -0.00145992 -0.00142179 -0.001424 -0.00145992 -0.00146117 -0.00138782 -0.00139141 -0.001424 -0.00142633 -0.00139141 -0.00139503 -0.00142633 -0.00142874 -0.001424 -0.00142633 -0.00146117 -0.00146253 -0.00142633 -0.00142874 -0.00146253 -0.00146398 -0.00145876 -0.00145992 -0.00149818 -0.00149865 -0.00145992 -0.00146117 -0.00149865 -0.00149919 -0.00149818 -0.00149865 -0.00153795 -0.00153794 -0.00149865 -0.00149919 -0.00153794 -0.00153798 -0.00146117 -0.00146253 -0.00149919 -0.00149982 -0.00146253 -0.00146398 -0.00149982 -0.00150056 -0.00149919 -0.00149982 -0.00153798 -0.0015381 -0.00149982 -0.00150056 -0.0015381 -0.00153833 -0.00153705 -0.00153758 -0.00157844 -0.00157859 -0.00153758 -0.00153785 -0.00157859 -0.00157853 -0.00157844 -0.00157859 -0.00161945 -0.00161938 -0.00157859 