# vtk DataFile Version 3.0
#This file was generated by the deal.II library on 2018/7/10 at 10:46:57
ASCII
DATASET UNSTRUCTURED_GRID

POINTS 4096 double
0 0.5 0
0.03125 0.5 0
0 0.53125 0
0.03125 0.53125 0
0.03125 0.5 0
0.0625 0.5 0
0.03125 0.53125 0
0.0625 0.53125 0
0 0.53125 0
0.03125 0.53125 0
0 0.5625 0
0.03125 0.5625 0
0.03125 0.53125 0
0.0625 0.53125 0
0.03125 0.5625 0
0.0625 0.5625 0
0.0625 0.5 0
0.09375 0.5 0
0.0625 0.53125 0
0.09375 0.53125 0
0.09375 0.5 0
0.125 0.5 0
0.09375 0.53125 0
0.125 0.53125 0
0.0625 0.53125 0
0.09375 0.53125 0
0.0625 0.5625 0
0.09375 0.5625 0
0.09375 0.53125 0
0.125 0.53125 0
0.09375 0.5625 0
0.125 0.5625 0
0 0.5625 0
0.03125 0.5625 0
0 0.59375 0
0.03125 0.59375 0
0.03125 0.5625 0
0.0625 0.5625 0
0.03125 0.59375 0
0.0625 0.59375 0
0 0.59375 0
0.03125 0.59375 0
0 0.625 0
0.03125 0.625 0
0.03125 0.59375 0
0.0625 0.59375 0
0.03125 0.625 0
0.0625 0.625 0
0.0625 0.5625 0
0.09375 0.5625 0
0.0625 0.59375 0
0.09375 0.59375 0
0.09375 0.5625 0
0.125 0.5625 0
0.09375 0.59375 0
0.125 0.59375 0
0.0625 0.59375 0
0.09375 0.59375 0
0.0625 0.625 0
0.09375 0.625 0
0.09375 0.59375 0
0.125 0.59375 0
0.09375 0.625 0
0.125 0.625 0
0.125 0.5 0
0.15625 0.5 0
0.125 0.53125 0
0.15625 0.53125 0
0.15625 0.5 0
0.1875 0.5 0
0.15625 0.53125 0
0.1875 0.53125 0
0.125 0.53125 0
0.15625 0.53125 0
0.125 0.5625 0
0.15625 0.5625 0
0.15625 0.53125 0
0.1875 0.53125 0
0.15625 0.5625 0
0.1875 0.5625 0
0.1875 0.5 0
0.21875 0.5 0
0.1875 0.53125 0
0.21875 0.53125 0
0.21875 0.5 0
0.25 0.5 0
0.21875 0.53125 0
0.25 0.53125 0
0.1875 0.53125 0
0.21875 0.53125 0
0.1875 0.5625 0
0.21875 0.5625 0
0.21875 0.53125 0
0.25 0.53125 0
0.21875 0.5625 0
0.25 0.5625 0
0.125 0.5625 0
0.15625 0.5625 0
0.125 0.59375 0
0.15625 0.59375 0
0.15625 0.5625 0
0.1875 0.5625 0
0.15625 0.59375 0
0.1875 0.59375 0
0.125 0.59375 0
0.15625 0.59375 0
0.125 0.625 0
0.15625 0.625 0
0.15625 0.59375 0
0.1875 0.59375 0
0.15625 0.625 0
0.1875 0.625 0
0.1875 0.5625 0
0.21875 0.5625 0
0.1875 0.59375 0
0.21875 0.59375 0
0.21875 0.5625 0
0.25 0.5625 0
0.21875 0.59375 0
0.25 0.59375 0
0.1875 0.59375 0
0.21875 0.59375 0
0.1875 0.625 0
0.21875 0.625 0
0.21875 0.59375 0
0.25 0.59375 0
0.21875 0.625 0
0.25 0.625 0
0 0.625 0
0.03125 0.625 0
0 0.65625 0
0.03125 0.65625 0
0.03125 0.625 0
0.0625 0.625 0
0.03125 0.65625 0
0.0625 0.65625 0
0 0.65625 0
0.03125 0.65625 0
0 0.6875 0
0.03125 0.6875 0
0.03125 0.65625 0
0.0625 0.65625 0
0.03125 0.6875 0
0.0625 0.6875 0
0.0625 0.625 0
0.09375 0.625 0
0.0625 0.65625 0
0.09375 0.65625 0
0.09375 0.625 0
0.125 0.625 0
0.09375 0.65625 0
0.125 0.65625 0
0.0625 0.65625 0
0.09375 0.65625 0
0.0625 0.6875 0
0.09375 0.6875 0
0.09375 0.65625 0
0.125 0.65625 0
0.09375 0.6875 0
0.125 0.6875 0
0 0.6875 0
0.03125 0.6875 0
0 0.71875 0
0.03125 0.71875 0
0.03125 0.6875 0
0.0625 0.6875 0
0.03125 0.71875 0
0.0625 0.71875 0
0 0.71875 0
0.03125 0.71875 0
0 0.75 0
0.03125 0.75 0
0.03125 0.71875 0
0.0625 0.71875 0
0.03125 0.75 0
0.0625 0.75 0
0.0625 0.6875 0
0.09375 0.6875 0
0.0625 0.71875 0
0.09375 0.71875 0
0.09375 0.6875 0
0.125 0.6875 0
0.09375 0.71875 0
0.125 0.71875 0
0.0625 0.71875 0
0.09375 0.71875 0
0.0625 0.75 0
0.09375 0.75 0
0.09375 0.71875 0
0.125 0.71875 0
0.09375 0.75 0
0.125 0.75 0
0.125 0.625 0
0.15625 0.625 0
0.125 0.65625 0
0.15625 0.65625 0
0.15625 0.625 0
0.1875 0.625 0
0.15625 0.65625 0
0.1875 0.65625 0
0.125 0.65625 0
0.15625 0.65625 0
0.125 0.6875 0
0.15625 0.6875 0
0.15625 0.65625 0
0.1875 0.65625 0
0.15625 0.6875 0
0.1875 0.6875 0
0.1875 0.625 0
0.21875 0.625 0
0.1875 0.65625 0
0.21875 0.65625 0
0.21875 0.625 0
0.25 0.625 0
0.21875 0.65625 0
0.25 0.65625 0
0.1875 0.65625 0
0.21875 0.65625 0
0.1875 0.6875 0
0.21875 0.6875 0
0.21875 0.65625 0
0.25 0.65625 0
0.21875 0.6875 0
0.25 0.6875 0
0.125 0.6875 0
0.15625 0.6875 0
0.125 0.71875 0
0.15625 0.71875 0
0.15625 0.6875 0
0.1875 0.6875 0
0.15625 0.71875 0
0.1875 0.71875 0
0.125 0.71875 0
0.15625 0.71875 0
0.125 0.75 0
0.15625 0.75 0
0.15625 0.71875 0
0.1875 0.71875 0
0.15625 0.75 0
0.1875 0.75 0
0.1875 0.6875 0
0.21875 0.6875 0
0.1875 0.71875 0
0.21875 0.71875 0
0.21875 0.6875 0
0.25 0.6875 0
0.21875 0.71875 0
0.25 0.71875 0
0.1875 0.71875 0
0.21875 0.71875 0
0.1875 0.75 0
0.21875 0.75 0
0.21875 0.71875 0
0.25 0.71875 0
0.21875 0.75 0
0.25 0.75 0
0.25 0.5 0
0.28125 0.5 0
0.25 0.53125 0
0.28125 0.53125 0
0.28125 0.5 0
0.3125 0.5 0
0.28125 0.53125 0
0.3125 0.53125 0
0.25 0.53125 0
0.28125 0.53125 0
0.25 0.5625 0
0.28125 0.5625 0
0.28125 0.53125 0
0.3125 0.53125 0
0.28125 0.5625 0
0.3125 0.5625 0
0.3125 0.5 0
0.34375 0.5 0
0.3125 0.53125 0
0.34375 0.53125 0
0.34375 0.5 0
0.375 0.5 0
0.34375 0.53125 0
0.375 0.53125 0
0.3125 0.53125 0
0.34375 0.53125 0
0.3125 0.5625 0
0.34375 0.5625 0
0.34375 0.53125 0
0.375 0.53125 0
0.34375 0.5625 0
0.375 0.5625 0
0.25 0.5625 0
0.28125 0.5625 0
0.25 0.59375 0
0.28125 0.59375 0
0.28125 0.5625 0
0.3125 0.5625 0
0.28125 0.59375 0
0.3125 0.59375 0
0.25 0.59375 0
0.28125 0.59375 0
0.25 0.625 0
0.28125 0.625 0
0.28125 0.59375 0
0.3125 0.59375 0
0.28125 0.625 0
0.3125 0.625 0
0.3125 0.5625 0
0.34375 0.5625 0
0.3125 0.59375 0
0.34375 0.59375 0
0.34375 0.5625 0
0.375 0.5625 0
0.34375 0.59375 0
0.375 0.59375 0
0.3125 0.59375 0
0.34375 0.59375 0
0.3125 0.625 0
0.34375 0.625 0
0.34375 0.59375 0
0.375 0.59375 0
0.34375 0.625 0
0.375 0.625 0
0.375 0.5 0
0.40625 0.5 0
0.375 0.53125 0
0.40625 0.53125 0
0.40625 0.5 0
0.4375 0.5 0
0.40625 0.53125 0
0.4375 0.53125 0
0.375 0.53125 0
0.40625 0.53125 0
0.375 0.5625 0
0.40625 0.5625 0
0.40625 0.53125 0
0.4375 0.53125 0
0.40625 0.5625 0
0.4375 0.5625 0
0.4375 0.5 0
0.46875 0.5 0
0.4375 0.53125 0
0.46875 0.53125 0
0.46875 0.5 0
0.5 0.5 0
0.46875 0.53125 0
0.5 0.53125 0
0.4375 0.53125 0
0.46875 0.53125 0
0.4375 0.5625 0
0.46875 0.5625 0
0.46875 0.53125 0
0.5 0.53125 0
0.46875 0.5625 0
0.5 0.5625 0
0.375 0.5625 0
0.40625 0.5625 0
0.375 0.59375 0
0.40625 0.59375 0
0.40625 0.5625 0
0.4375 0.5625 0
0.40625 0.59375 0
0.4375 0.59375 0
0.375 0.59375 0
0.40625 0.59375 0
0.375 0.625 0
0.40625 0.625 0
0.40625 0.59375 0
0.4375 0.59375 0
0.40625 0.625 0
0.4375 0.625 0
0.4375 0.5625 0
0.46875 0.5625 0
0.4375 0.59375 0
0.46875 0.59375 0
0.46875 0.5625 0
0.5 0.5625 0
0.46875 0.59375 0
0.5 0.59375 0
0.4375 0.59375 0
0.46875 0.59375 0
0.4375 0.625 0
0.46875 0.625 0
0.46875 0.59375 0
0.5 0.59375 0
0.46875 0.625 0
0.5 0.625 0
0.25 0.625 0
0.28125 0.625 0
0.25 0.65625 0
0.28125 0.65625 0
0.28125 0.625 0
0.3125 0.625 0
0.28125 0.65625 0
0.3125 0.65625 0
0.25 0.65625 0
0.28125 0.65625 0
0.25 0.6875 0
0.28125 0.6875 0
0.28125 0.65625 0
0.3125 0.65625 0
0.28125 0.6875 0
0.3125 0.6875 0
0.3125 0.625 0
0.34375 0.625 0
0.3125 0.65625 0
0.34375 0.65625 0
0.34375 0.625 0
0.375 0.625 0
0.34375 0.65625 0
0.375 0.65625 0
0.3125 0.65625 0
0.34375 0.65625 0
0.3125 0.6875 0
0.34375 0.6875 0
0.34375 0.65625 0
0.375 0.65625 0
0.34375 0.6875 0
0.375 0.6875 0
0.25 0.6875 0
0.28125 0.6875 0
0.25 0.71875 0
0.28125 0.71875 0
0.28125 0.6875 0
0.3125 0.6875 0
0.28125 0.71875 0
0.3125 0.71875 0
0.25 0.71875 0
0.28125 0.71875 0
0.25 0.75 0
0.28125 0.75 0
0.28125 0.71875 0
0.3125 0.71875 0
0.28125 0.75 0
0.3125 0.75 0
0.3125 0.6875 0
0.34375 0.6875 0
0.3125 0.71875 0
0.34375 0.71875 0
0.34375 0.6875 0
0.375 0.6875 0
0.34375 0.71875 0
0.375 0.71875 0
0.3125 0.71875 0
0.34375 0.71875 0
0.3125 0.75 0
0.34375 0.75 0
0.34375 0.71875 0
0.375 0.71875 0
0.34375 0.75 0
0.375 0.75 0
0.375 0.625 0
0.40625 0.625 0
0.375 0.65625 0
0.40625 0.65625 0
0.40625 0.625 0
0.4375 0.625 0
0.40625 0.65625 0
0.4375 0.65625 0
0.375 0.65625 0
0.40625 0.65625 0
0.375 0.6875 0
0.40625 0.6875 0
0.40625 0.65625 0
0.4375 0.65625 0
0.40625 0.6875 0
0.4375 0.6875 0
0.4375 0.625 0
0.46875 0.625 0
0.4375 0.65625 0
0.46875 0.65625 0
0.46875 0.625 0
0.5 0.625 0
0.46875 0.65625 0
0.5 0.65625 0
0.4375 0.65625 0
0.46875 0.65625 0
0.4375 0.6875 0
0.46875 0.6875 0
0.46875 0.65625 0
0.5 0.65625 0
0.46875 0.6875 0
0.5 0.6875 0
0.375 0.6875 0
0.40625 0.6875 0
0.375 0.71875 0
0.40625 0.71875 0
0.40625 0.6875 0
0.4375 0.6875 0
0.40625 0.71875 0
0.4375 0.71875 0
0.375 0.71875 0
0.40625 0.71875 0
0.375 0.75 0
0.40625 0.75 0
0.40625 0.71875 0
0.4375 0.71875 0
0.40625 0.75 0
0.4375 0.75 0
0.4375 0.6875 0
0.46875 0.6875 0
0.4375 0.71875 0
0.46875 0.71875 0
0.46875 0.6875 0
0.5 0.6875 0
0.46875 0.71875 0
0.5 0.71875 0
0.4375 0.71875 0
0.46875 0.71875 0
0.4375 0.75 0
0.46875 0.75 0
0.46875 0.71875 0
0.5 0.71875 0
0.46875 0.75 0
0.5 0.75 0
0 0.75 0
0.03125 0.75 0
0 0.78125 0
0.03125 0.78125 0
0.03125 0.75 0
0.0625 0.75 0
0.03125 0.78125 0
0.0625 0.78125 0
0 0.78125 0
0.03125 0.78125 0
0 0.8125 0
0.03125 0.8125 0
0.03125 0.78125 0
0.0625 0.78125 0
0.03125 0.8125 0
0.0625 0.8125 0
0.0625 0.75 0
0.09375 0.75 0
0.0625 0.78125 0
0.09375 0.78125 0
0.09375 0.75 0
0.125 0.75 0
0.09375 0.78125 0
0.125 0.78125 0
0.0625 0.78125 0
0.09375 0.78125 0
0.0625 0.8125 0
0.09375 0.8125 0
0.09375 0.78125 0
0.125 0.78125 0
0.09375 0.8125 0
0.125 0.8125 0
0 0.8125 0
0.03125 0.8125 0
0 0.84375 0
0.03125 0.84375 0
0.03125 0.8125 0
0.0625 0.8125 0
0.03125 0.84375 0
0.0625 0.84375 0
0 0.84375 0
0.03125 0.84375 0
0 0.875 0
0.03125 0.875 0
0.03125 0.84375 0
0.0625 0.84375 0
0.03125 0.875 0
0.0625 0.875 0
0.0625 0.8125 0
0.09375 0.8125 0
0.0625 0.84375 0
0.09375 0.84375 0
0.09375 0.8125 0
0.125 0.8125 0
0.09375 0.84375 0
0.125 0.84375 0
0.0625 0.84375 0
0.09375 0.84375 0
0.0625 0.875 0
0.09375 0.875 0
0.09375 0.84375 0
0.125 0.84375 0
0.09375 0.875 0
0.125 0.875 0
0.125 0.75 0
0.15625 0.75 0
0.125 0.78125 0
0.15625 0.78125 0
0.15625 0.75 0
0.1875 0.75 0
0.15625 0.78125 0
0.1875 0.78125 0
0.125 0.78125 0
0.15625 0.78125 0
0.125 0.8125 0
0.15625 0.8125 0
0.15625 0.78125 0
0.1875 0.78125 0
0.15625 0.8125 0
0.1875 0.8125 0
0.1875 0.75 0
0.21875 0.75 0
0.1875 0.78125 0
0.21875 0.78125 0
0.21875 0.75 0
0.25 0.75 0
0.21875 0.78125 0
0.25 0.78125 0
0.1875 0.78125 0
0.21875 0.78125 0
0.1875 0.8125 0
0.21875 0.8125 0
0.21875 0.78125 0
0.25 0.78125 0
0.21875 0.8125 0
0.25 0.8125 0
0.125 0.8125 0
0.15625 0.8125 0
0.125 0.84375 0
0.15625 0.84375 0
0.15625 0.8125 0
[...]
POINT_DATA 4096
SCALARS State_InstatPDEProblemContainer_0 double 1
LOOKUP_TABLE default
-0.00120515 -0.00120491 -0.00128935 -0.00128921 -0.00120491 -0.00120469 -0.00128921 -0.00128927 -0.00128935 -0.00128921 -0.00137316 -0.00137312 -0.00128921 -0.00128927 -0.00137312 -0.00137344 -0.00120469 -0.00120446 -0.00128927 -0.00128953 -0.00120446 -0.00120424 -0.00128953 -0.00129002 -0.00128927 -0.00128953 -0.00137344 -0.00137416 -0.00128953 -0.00129002 -0.00137416 -0.00137531 -0.00137316 -0.00137312 -0.00145624 -0.00145628 -0.00137312 -0.00137344 -0.00145628 -0.00145684 -0.00145624 -0.00145628 -0.00153828 -0.00153839 -0.00145628 -0.00145684 -0.00153839 -0.00153914 -0.00137344 -0.00137416 -0.00145684 -0.00145796 -0.00137416 -0.00137531 -0.00145796 -0.00145967 -0.00145684 -0.00145796 -0.00153914 -0.00154057 -0.00145796 -0.00145967 -0.00154057 -0.00154271 -0.00120424 -0.00120401 -0.00129002 -0.00129075 -0.00120401 -0.00120378 -0.00129075 -0.00129178 -0.00129002 -0.00129075 -0.00137531 -0.00137693 -0.00129075 -0.00129178 -0.00137693 -0.00137911 -0.00120378 -0.00120355 -0.00129178 -0.00129316 -0.00120355 -0.0012033 -0.00129316 -0.00129499 -0.00129178 -0.00129316 -0.00137911 -0.00138195 -0.00129316 -0.00129499 -0.00138195 -0.00138563 -0.00137531 -0.00137693 -0.00145967 -0.00146204 -0.00137693 -0.00137911 -0.00146204 -0.00146516 -0.00145967 -0.00146204 -0.00154271 -0.00154564 -0.00146204 -0.00146516 -0.00154564 -0.00154946 -0.00137911 -0.00138195 -0.00146516 -0.00146918 -0.00138195 -0.00138563 -0.00146918 -0.00147429 -0.00146516 -0.00146918 -0.00154946 -0.0015543 -0.00146918 -0.00147429 -0.0015543 -0.00156033 -0.00153828 -0.00153839 -0.00161902 -0.00161919 -0.00153839 -0.00153914 -0.00161919 -0.00162007 -0.00161902 -0.00161919 -0.00169827 -0.00169846 -0.00161919 -0.00162007 -0.00169846 -0.00169943 -0.00153914 -0.00154057 -0.00162007 -0.00162172 -0.00154057 -0.00154271 -0.00162172 -0.00162415 -0.00162007 -0.00162172 -0.00169943 -0.00170119 -0.00162172 -0.00162415 -0.00170119 -0.00170378 -0.00169827 -0.00169846 -0.00177586 -0.00177608 -0.00169846 -0.00169943 -0.00177608 -0.00177707 -0.00177586 -0.00177608 -0.00185172 -0.00185194 -0.00177608 -0.00177707 -0.00185194 -0.00185292 -0.00169943 -0.00170119 -0.00177707 -0.00177886 -0.00170119 -0.00170378 -0.00177886 -0.00178147 -0.00177707 -0.00177886 -0.00185292 -0.00185466 -0.00177886 -0.00178147 -0.00185466 -0.00185718 -0.00154271 -0.00154564 -0.00162415 -0.00162744 -0.00154564 -0.00154946 -0.00162744 -0.00163168 -0.00162415 -0.00162744 -0.00170378 -0.00170724 -0.00162744 -0.00163168 -0.00170724 -0.00171163 -0.00154946 -0.0015543 -0.00163168 -0.00163696 -0.0015543 -0.00156033 -0.00163696 -0.00164343 -0.00163168 -0.00163696 -0.00171163 -0.00171702 -0.00163696 -0.00164343 -0.00171702 -0.0017235 -0.00170378 -0.00170724 -0.00178147 -0.00178492 -0.00170724 -0.00171163 -0.00178492 -0.00178925 -0.00178147 -0.00178492 -0.00185718 -0.00186049 -0.00178492 -0.00178925 -0.00186049 -0.00186459 -0.00171163 -0.00171702 -0.00178925 -0.00179449 -0.00171702 -0.0017235 -0.00179449 -0.00180067 -0.00178925 -0.00179449 -0.00186459 -0.00186947 -0.00179449 -0.00180067 -0.00186947 -0.00187513 -0.0012033 -0.00120303 -0.00129499 -0.00129741 -0.00120303 -0.00120275 -0.00129741 -0.00130063 -0.00129499 -0.00129741 -0.00138563 -0.00139037 -0.00129741 -0.00130063 -0.00139037 -0.00139653 -0.00120275 -0.00120243 -0.00130063 -0.001305 -0.00120243 -0.00120205 -0.001305 -0.00131113 -0.00130063 -0.001305 -0.00139653 -0.00140465 -0.001305 -0.00131113 -0.00140465 -0.00141557 -0.00138563 -0.00139037 -0.00147429 -0.00148074 -0.00139037 -0.00139653 -0.00148074 -0.00148891 -0.00147429 -0.00148074 -0.00156033 -0.00156779 -0.00148074 -0.00148891 -0.00156779 -0.00157695 -0.00139653 -0.00140465 -0.00148891 -0.00149929 -0.00140465 -0.00141557 -0.00149929 -0.00151254 -0.00148891 -0.00149929 -0.00157695 -0.00158813 -0.00149929 -0.00151254 -0.00158813 -0.00160165 -0.00120205 -0.00120159 -0.00131113 -0.00132015 -0.00120159 -0.00120095 -0.00132015 -0.00133451 -0.00131113 -0.00132015 -0.00141557 -0.00143064 -0.00132015 -0.00133451 -0.00143064 -0.00145189 -0.00120095 -0.0011998 -0.00133451 -0.00135976 -0.0011998 -0.00119827 -0.00135976 -0.00141463 -0.00133451 -0.00135976 -0.00145189 -0.00148236 -0.00135976 -0.00141463 -0.00148236 -0.00151445 -0.00141557 -0.00143064 -0.00151254 -0.00152942 -0.00143064 -0.00145189 -0.00152942 -0.00155055 -0.00151254 -0.00152942 -0.00160165 -0.00161765 -0.00152942 -0.00155055 -0.00161765 -0.00163563 -0.00145189 -0.00148236 -0.00155055 -0.00157435 -0.00148236 -0.00151445 -0.00157435 -0.00159878 -0.00155055 -0.00157435 -0.00163563 -0.0016545 -0.00157435 -0.00159878 -0.0016545 -0.00167263 -0.00156033 -0.00156779 -0.00164343 -0.00165123 -0.00156779 -0.00157695 -0.00165123 -0.00166052 -0.00164343 -0.00165123 -0.0017235 -0.00173113 -0.00165123 -0.00166052 -0.00173113 -0.00173996 -0.00157695 -0.00158813 -0.00166052 -0.00167144 -0.00158813 -0.00160165 -0.00167144 -0.00168399 -0.00166052 -0.00167144 -0.00173996 -0.00174997 -0.00167144 -0.00168399 -0.00174997 -0.00176099 -0.0017235 -0.00173113 -0.00180067 -0.00180778 -0.00173113 -0.00173996 -0.00180778 -0.00181578 -0.00180067 -0.00180778 -0.00187513 -0.00188151 -0.00180778 -0.00181578 -0.00188151 -0.00188853 -0.00173996 -0.00174997 -0.00181578 -0.00182457 -0.00174997 -0.00176099 -0.00182457 -0.00183393 -0.00181578 -0.00182457 -0.00188853 -0.00189601 -0.00182457 -0.00183393 -0.00189601 -0.00190375 -0.00160165 -0.00161765 -0.00168399 -0.00169795 -0.00161765 -0.00163563 -0.00169795 -0.00171273 -0.00168399 -0.00169795 -0.00176099 -0.00177271 -0.00169795 -0.00171273 -0.00177271 -0.0017846 -0.00163563 -0.0016545 -0.00171273 -0.00172744 -0.0016545 -0.00167263 -0.00172744 -0.00174129 -0.00171273 -0.00172744 -0.0017846 -0.00179606 -0.00172744 -0.00174129 -0.00179606 -0.00180664 -0.00176099 -0.00177271 -0.00183393 -0.00184353 -0.00177271 -0.0017846 -0.00184353 -0.00185296 -0.00183393 -0.00184353 -0.00190375 -0.00191146 -0.00184353 -0.00185296 -0.00191146 -0.00191883 -0.0017846 -0.00179606 -0.00185296 -0.00186181 -0.00179606 -0.00180664 -0.00186181 -0.00186984 -0.00185296 -0.00186181 -0.00191883 -0.00192558 -0.00186181 -0.00186984 -0.00192558 -0.00193157 -0.00185172 -0.00185194 -0.00192582 -0.00192602 -0.00185194 -0.00185292 -0.00192602 -0.00192695 -0.00192582 -0.00192602 -0.00199815 -0.00199834 -0.00192602 -0.00192695 -0.00199834 -0.00199917 -0.00185292 -0.00185466 -0.00192695 -0.00192858 -0.00185466 -0.00185718 -0.00192858 -0.00193093 -0.00192695 -0.00192858 -0.00199917 -0.00200065 -0.00192858 -0.00193093 -0.00200065 -0.00200277 -0.00199815 -0.00199834 -0.00206877 -0.00206893 -0.00199834 -0.00199917 -0.00206893 -0.00206966 -0.00206877 -0.00206893 -0.00213777 -0.00213789 -0.00206893 -0.00206966 -0.00213789 -0.00213849 -0.00199917 -0.00200065 -0.00206966 -0.00207095 -0.00200065 -0.00200277 -0.00207095 -0.00207279 -0.00206966 -0.00207095 -0.00213849 -0.00213957 -0.00207095 -0.00207279 -0.00213957 -0.0021411 -0.00185718 -0.00186049 -0.00193093 -0.00193398 -0.00186049 -0.00186459 -0.00193398 -0.00193773 -0.00193093 -0.00193398 -0.00200277 -0.0020055 -0.00193398 -0.00193773 -0.0020055 -0.00200881 -0.00186459 -0.00186947 -0.00193773 -0.00194214 -0.00186947 -0.00187513 -0.00194214 -0.00194716 -0.00193773 -0.00194214 -0.00200881 -0.00201266 -0.00194214 -0.00194716 -0.00201266 -0.00201699 -0.00200277 -0.0020055 -0.00207279 -0.00207514 -0.0020055 -0.00200881 -0.00207514 -0.00207798 -0.00207279 -0.00207514 -0.0021411 -0.00214305 -0.00207514 -0.00207798 -0.00214305 -0.00214538 -0.00200881 -0.00201266 -0.00207798 -0.00208124 -0.00201266 -0.00201699 -0.00208124 -0.00208485 -0.00207798 -0.00208124 -0.00214538 -0.00214803 -0.00208124 -0.00208485 -0.00214803 -0.00215093 -0.00213777 -0.00213789 -0.00220525 -0.00220533 -0.00213789 -0.00213849 -0.00220533 -0.00220579 -0.00220525 -0.00220533 -0.00227135 -0.00227138 -0.00220533 -0.00220579 -0.00227138 -0.00227169 -0.00213849 -0.00213957 -0.00220579 -0.00220663 -0.00213957 -0.0021411 -0.00220663 -0.00220782 -0.00220579 -0.00220663 -0.00227169 -0.00227227 -0.00220663 -0.00220782 -0.00227227 -0.00227311 -0.00227135 -0.00227138 -0.00233623 -0.0023362 -0.00227138 -0.00227169 -0.0023362 -0.00233636 -0.00233623 -0.0023362 -0.0024 -0.0024 -0.0023362 -0.00233636 -0.0024 -0.0024 -0.00227169 -0.00227227 -0.00233636 -0.00233666 -0.00227227 -0.00227311 -0.00233666 -0.0023371 -0.00233636 -0.00233666 -0.0024 -0.0024 -0.00233666 -0.0023371 -0.0024 -0.0024 -0.0021411 -0.00214305 -0.00220782 -0.00220934 -0.00214305 -0.00214538 -0.00220934 -0.00221115 -0.00220782 -0.00220934 -0.00227311 -0.00227417 -0.00220934 -0.00221115 -0.00227417 -0.00227542 -0.00214538 -0.00214803 -0.00221115 -0.00221318 -0.00214803 -0.00215093 -0.00221318 -0.00221538 -0.00221115 -0.00221318 -0.00227542 -0.00227683 -0.00221318 -0.00221538 -0.00227683 -0.00227833 -0.00227311 -0.00227417 -0.0023371 -0.00233767 -0.00227417 -0.00227542 -0.00233767 -0.00233833 -0.0023371 -0.00233767 -0.0024 -0.0024 -0.00233767 -0.00233833 -0.0024 -0.0024 -0.00227542 -0.00227683 -0.00233833 -0.00233907 -0.00227683 -0.00227833 -0.00233907 -0.00233985 -0.00233833 -0.00233907 -0.0024 -0.0024 -0.00233907 -0.00233985 -0.0024 -0.0024 -0.00187513 -0.00188151 -0.00194716 -0.00195271 -0.00188151 -0.00188853 -0.00195271 -0.00195867 -0.00194716 -0.00195271 -0.00201699 -0.00202168 -0.00195271 -0.00195867 -0.00202168 -0.00202663 -0.00188853 -0.00189601 -0.00195867 -0.00196489 -0.00189601 -0.00190375 -0.00196489 -0.00197115 -0.00195867 -0.00196489 -0.00202663 -0.00203166 -0.00196489 -0.00197115 -0.00203166 -0.00203661 -0.00201699 -0.00202168 -0.00208485 -0.0020887 -0.00202168 -0.00202663 -0.0020887 -0.00209269 -0.00208485 -0.0020887 -0.00215093 -0.00215398 -0.0020887 -0.00209269 -0.00215398 -0.00215708 -0.00202663 -0.00203166 -0.00209269 -0.00209666 -0.00203166 -0.00203661 -0.00209666 -0.00210047 -0.00209269 -0.00209666 -0.00215708 -0.0021601 -0.00209666 -0.00210047 -0.0021601 -0.00216293 -0.00190375 -0.00191146 -0.00197115 -0.00197722 -0.00191146 -0.00191883 -0.00197722 -0.00198287 -0.00197115 -0.00197722 -0.00203661 -0.00204129 -0.00197722 -0.00198287 -0.00204129 -0.00204551 -0.00191883 -0.00192558 -0.00198287 -0.00198791 -0.00192558 -0.00193157 -0.00198791 -0.00199226 -0.00198287 -0.00198791 -0.00204551 -0.00204916 -0.00198791 -0.00199226 -0.00204916 -0.00205219 -0.00203661 -0.00204129 -0.00210047 -0.00210396 -0.00204129 -0.00204551 -0.00210396 -0.00210702 -0.00210047 -0.00210396 -0.00216293 -0.00216544 -0.00210396 -0.00210702 -0.00216544 -0.00216755 -0.00204551 -0.00204916 -0.00210702 -0.00210955 -0.00204916 -0.00205219 -0.00210955 -0.00211152 -0.00210702 -0.00210955 -0.00216755 -0.00216918 -0.00210955 -0.00211152 -0.00216918 -0.00217034 -0.00215093 -0.00215398 -0.00221538 -0.00221767 -0.00215398 -0.00215708 -0.00221767 -0.00221995 -0.00221538 -0.00221767 -0.00227833 -0.00227988 -0.00221767 -0.00221995 -0.00227988 -0.0022814 -0.00215708 -0.0021601 -0.00221995 -0.00222214 -0.0021601 -0.00216293 -0.00222214 -0.00222412 -0.00221995 -0.00222214 -0.0022814 -0.00228282 -0.00222214 -0.00222412 -0.00228282 -0.00228407 -0.00227833 -0.00227988 -0.00233985 -0.00234065 -0.00227988 -0.0022814 -0.00234065 -0.00234143 -0.00233985 -0.00234065 -0.0024 -0.0024 -0.00234065 -0.00234143 -0.0024 -0.0024 -0.0022814 -0.00228282 -0.00234143 -0.00234214 -0.00228282 -0.00228407 -0.00234214 -0.00234274 -0.00234143 -0.00234214 -0.0024 -0.0024 -0.00234214 -0.00234274 -0.0024 -0.0024 -0.00216293 -0.00216544 -0.00222412 -0.00222582 -0.00216544 -0.00216755 -0.00222582 -0.00222716 -0.00222412 -0.00222582 -0.00228407 -0.0022851 -0.00222582 -0.00222716 -0.0022851 -0.00228585 -0.00216755 -0.00216918 -0.00222716 -0.00222811 -0.00216918 -0.00217034 -0.00222811 -0.00222867 -0.00222716 -0.00222811 -0.00228585 -0.00228631 -0.00222811 -0.00222867 -0.00228631 -0.00228647 -0.00228407 -0.0022851 -0.00234274 -0.00234321 -0.0022851 -0.00228585 -0.00234321 -0.00234353 -0.00234274 -0.00234321 -0.0024 -0.0024 -0.00234321 -0.00234353 -0.0024 -0.0024 -0.00228585 -0.00228631 -0.00234353 -0.00234367 -0.00228631 -0.00228647 -0.00234367 -0.00234363 -0.00234353 -0.00234367 -0.0024 -0.0024 -0.00234367 -0.00234363 -0.0024 -0.0024 -0.00119827 -0.00138095 -0.00141463 -0.00145875 -0.00138095 -0.00148939 -0.00145875 -0.00151955 -0.00141463 -0.00145875 -0.00151445 -0.00154786 -0.00145875 -0.00151955 -0.00154786 -0.00158004 -0.00148939 -0.00156305 -0.00151955 -0.00157685 -0.00156305 -0.00161879 -0.00157685 -0.00162581 -0.00151955 -0.00157685 -0.00158004 -0.00161689 -0.00157685 -0.00162581 -0.00161689 -0.00165353 -0.00151445 -0.00154786 -0.00159878 -0.00162135 -0.00154786 -0.00158004 -0.00162135 -0.0016441 -0.00159878 -0.00162135 -0.00167263 -0.00168955 -0.00162135 -0.0016441 -0.00168955 -0.00170588 -0.00158004 -0.00161689 -0.0016441 -0.00166824 -0.00161689 -0.00165353 -0.00166824 -0.00169404 -0.0016441 -0.00166824 -0.00170588 -0.00172295 -0.00166824 -0.00169404 -0.00172295 -0.00174114 -0.00161879 -0.00166318 -0.00162581 -0.00166699 -0.00166318 -0.0016995 -0.00166699 -0.00170166 -0.00162581 -0.00166699 -0.00165353 -0.00168729 -0.00166699 -0.00170166 -0.00168729 -0.00171731 -0.0016995 -0.00172959 -0.00170166 -0.00173088 -0.00172959 -0.00175463 -0.00173088 -0.00175549 -0.00170166 -0.00173088 -0.00171731 -0.00174352 -0.00173088 -0.00175549 -0.00174352 -0.00176612 -0.00165353 -0.00168729 -0.00169404 -0.0017197 -0.00168729 -0.00171731 -0.0017197 -0.0017439 -0.00169404 -0.0017197 -0.00174114 -0.00175999 -0.0017197 -0.0017439 -0.00175999 -0.0017786 -0.00171731 -0.00174352 -0.0017439 -0.00176594 -0.00174352 -0.00176612 -0.00176594 -0.00178553 -0.0017439 -0.00176594 -0.0017786 -0.00179623 -0.00176594 -0.00178553 -0.00179623 -0.00181241 -0.00167263 -0.00168955 -0.00174129 -0.00175402 -0.00168955 -0.00170588 -0.00175402 -0.00176614 -0.00174129 -0.00175402 -0.00180664 -0.00181625 -0.00175402 -0.00176614 -0.00181625 -0.00182525 -0.00170588 -0.00172295 -0.00176614 -0.00177845 -0.00172295 -0.00174114 -0.00177845 -0.00179145 -0.00176614 -0.00177845 -0.00182525 -0.00183418 -0.00177845 -0.00179145 -0.00183418 -0.00184346 -0.00180664 -0.00181625 -0.00186984 -0.00187702 -0.00181625 -0.00182525 -0.00187702 -0.00188361 -0.00186984 -0.00187702 -0.00193157 -0.00193681 -0.00187702 -0.00188361 -0.00193681 -0.00194151 -0.00182525 -0.00183418 -0.00188361 -0.00189 -0.00183418 -0.00184346 -0.00189 -0.00189653 -0.00188361 -0.00189 -0.00194151 -0.00194594 -0.00189 -0.00189653 -0.00194594 -0.00195037 -0.00174114 -0.00175999 -0.00179145 -0.0018051 -0.00175999 -0.0017786 -0.0018051 -0.00181899 -0.00179145 -0.0018051 -0.00184346 -0.00185323 -0.0018051 -0.00181899 -0.00185323 -0.00186334 -0.0017786 -0.00179623 -0.00181899 -0.00183257 -0.00179623 -0.00181241 -0.00183257 -0.0018454 -0.00181899 -0.00183257 -0.00186334 -0.00187347 -0.00183257 -0.0018454 -0.00187347 -0.00188328 -0.00184346 -0.00185323 -0.00189653 -0.00190338 -0.00185323 -0.00186334 -0.00190338 -0.00191053 -0.00189653 -0.00190338 -0.00195037 -0.00195499 -0.00190338 -0.00191053 -0.00195499 -0.00195985 -0.00186334 -0.00187347 -0.00191053 -0.00191783 -0.00187347 -0.00188328 -0.00191783 -0.00192506 -0.00191053 -0.00191783 -0.00195985 -0.00196489 -0.00191783 -0.00192506 -0.00196489 -0.00196998 -0.00175463 -0.00177542 -0.00175549 -0.00177611 -0.00177542 -0.00179256 -0.00177611 -0.00179322 -0.00175549 -0.00177611 -0.00176612 -0.00178538 -0.00177611 -0.00179322 -0.00178538 -0.00180156 -0.00179256 -0.00180646 -0.00179322 -0.00180717 -0.00180646 -0.00181746 -0.00180717 -0.00181825 -0.00179322 -0.00180717 -0.00180156 -0.00181488 -0.00180717 -0.00181825 -0.00181488 -0.00182553 -0.00176612 -0.00178538 -0.00178553 -0.0018026 -0.00178538 -0.00180156 -0.0018026 -0.00181718 -0.00178553 -0.0018026 -0.00181241 -0.00182686 -0.0018026 -0.00181718 -0.00182686 -0.00183943 -0.00180156 -0.00181488 -0.00181718 -0.00182933 -0.00181488 -0.00182553 -0.00182933 -0.00183914 -0.00181718 -0.00182933 -0.00183943 -0.00185006 -0.00182933 -0.00183914 -0.00185006 -0.00185874 -0.00181746 -0.00182579 -0.00181825 -0.00182667 -0.00182579 -0.00183162 -0.00182667 -0.00183258 -0.00181825 -0.00182667 -0.00182553 -0.00183366 -0.00182667 -0.00183258 -0.00183366 -0.00183939 -0.00183162 -0.00183507 -0.00183258 -0.00183608 -0.00183507 -0.00183621 -0.00183608 -0.00183724 -0.00183258 -0.00183608 -0.00183939 -0.0018428 -0.00183608 -0.00183724 -0.0018428 -0.00184392 -0.00182553 -0.00183366 -0.00183914 -0.00184668 -0.00183366 -0.00183939 -0.00184668 -0.00185201 -0.00183914 -0.00184668 -0.00185874 -0.00186546 -0.00184668 -0.00185201 -0.00186546 -0.00187024 -0.00183939 -0.0018428 -0.00185201 -0.00185519 -0.0018428 -0.00184392 -0.00185519 -0.00185624 -0.00185201 -0.00185519 -0.00187024 -0.0018731 -0.00185519 -0.00185624 -0.0018731 -0.00187405 -0.00181241 -0.00182686 -0.0018454 -0.00185714 -0.00182686 -0.00183943 -0.00185714 -0.00186755 -0.0018454 -0.00185714 -0.00188328 -0.00189245 -0.00185714 -0.00186755 -0.00189245 -0.00190075 -0.00183943 -0.00185006 -0.00186755 -0.00187649 -0.00185006 -0.00185874 -0.00187649 -0.00188388 -0.00186755 -0.00187649 -0.00190075 -0.00190799 -0.00187649 -0.00188388 -0.00190799 -0.00191405 -0.00188328 -0.00189245 -0.00192506 -0.00193196 -0.00189245 -0.00190075 -0.00193196 -0.00193831 -0.00192506 -0.00193196 -0.00196998 -0.00197494 -0.00193196 -0.00193831 -0.00197494 -0.0019796 -0.00190075 -0.00190799 -0.00193831 -0.00194395 -0.00190799 -0.00191405 -0.00194395 -0.00194872 -0.00193831 -0.00194395 -0.0019796 -0.0019838 -0.00194395 -0.00194872 -0.0019838 -0.00198741 -0.00185874 -0.00186546 -0.00188388 -0.00188965 -0.00186546 -0.00187024 -0.00188965 -0.00189379 -0.00188388 -0.00188965 -0.00191405 -0.00191883 -0.00188965 -0.00189379 -0.00191883 -0.00192227 -0.00187024 -0.0018731 -0.00189379 -0.00189627 -0.0018731 -0.00187405 -0.00189627 -0.00189708 -0.00189379 -0.00189627 -0.00192227 -0.00192434 -0.00189627 -0.00189708 -0.00192434 -0.00192502 -0.00191405 -0.00191883 -0.00194872 -0.00195253 -0.00191883 -0.00192227 -0.00195253 -0.00195529 -0.00194872 -0.00195253 -0.00198741 -0.00199031 -0.00195253 -0.00195529 -0.00199031 -0.00199243 -0.00192227 -0.00192434 -0.00195529 -0.00195696 -0.00192434 -0.00192502 -0.00195696 -0.0019575 -0.00195529 -0.00195696 -0.00199243 -0.00199371 -0.00195696 -0.0019575 -0.00199371 -0.00199412 -0.00193157 -0.00193681 -0.00199226 -0.00199596 -0.00193681 -0.00194151 -0.00199596 -0.00199914 -0.00199226 -0.00199596 -0.00205219 -0.00205464 -0.00199596 -0.00199914 -0.00205464 -0.00205663 -0.00194151 -0.00194594 -0.00199914 -0.00200203 -0.00194594 -0.00195037 -0.00200203 -0.00200485 -0.00199914 -0.00200203 -0.00205663 -0.00205832 -0.00200203 -0.00200485 -0.00205832 -0.00205989 -0.00205219 -0.00205464 -0.00211152 -0.00211299 -0.00205464 -0.00205663 -0.00211299 -0.00211404 -0.00211152 -0.00211299 -0.00217034 -0.00217106 -0.00211299 -0.00211404 -0.00217106 -0.00217142 -0.00205663 -0.00205832 -0.00211404 -0.00211482 -0.00205832 -0.00205989 -0.00211482 -0.00211546 -0.00211404 -0.00211482 -0.00217142 -0.00217154 -0.00211482 -0.00211546 -0.00217154 -0.00217152 -0.00195037 -0.00195499 -0.00200485 -0.00200776 -0.00195499 -0.00195985 -0.00200776 -0.00201085 -0.00200485 -0.00200776 -0.00205989 -0.0020615 -0.00200776 -0.00201085 -0.0020615 -0.00206324 -0.00195985 -0.00196489 -0.00201085 -0.00201411 -0.00196489 -0.00196998 -0.00201411 -0.00201749 -0.00201085 -0.00201411 -0.00206324 -0.00206514 -0.00201411 -0.00201749 -0.00206514 -0.00206717 -0.00205989 -0.0020615 -0.00211546 -0.00211611 -0.0020615 -0.00206324 -0.00211611 -0.00211685 -0.00211546 -0.00211611 -0.00217152 -0.00217149 -0.00211611 -0.00211685 -0.00217149 -0.00217153 -0.00206324 -0.00206514 -0.00211685 -0.00211773 -0.00206514 -0.00206717 -0.00211773 -0.00211875 -0.00211685 -0.00211773 -0.00217153 -0.0021717 -0.00211773 -0.00211875 -0.0021717 -0.002172 -0.00217034 -0.00217106 -0.00222867 -0.00222886 -0.00217106 -0.00217142 -0.00222886 -0.00222876 -0.00222867 -0.00222886 -0.00228647 -0.00228636 -0.00222886 -0.00222876 -0.00228636 -0.00228603 -0.0