# vtk DataFile Version 3.0
#This file was generated by the deal.II library on 2018/7/10 at 10:46:59
ASCII
DATASET UNSTRUCTURED_GRID

POINTS 4096 double
0 0.5 0
0.03125 0.5 0
0 0.53125 0
0.03125 0.53125 0
0.03125 0.5 0
0.0625 0.5 0
0.03125 0.53125 0
0.0625 0.53125 0
0 0.53125 0
0.03125 0.53125 0
0 0.5625 0
0.03125 0.5625 0
0.03125 0.53125 0
0.0625 0.53125 0
0.03125 0.5625 0
0.0625 0.5625 0
0.0625 0.5 0
0.09375 0.5 0
0.0625 0.53125 0
0.09375 0.53125 0
0.09375 0.5 0
0.125 0.5 0
0.09375 0.53125 0
0.125 0.53125 0
0.0625 0.53125 0
0.09375 0.53125 0
0.0625 0.5625 0
0.09375 0.5625 0
0.09375 0.53125 0
0.125 0.53125 0
0.09375 0.5625 0
0.125 0.5625 0
0 0.5625 0
0.03125 0.5625 0
0 0.59375 0
0.03125 0.59375 0
0.03125 0.5625 0
0.0625 0.5625 0
0.03125 0.59375 0
0.0625 0.59375 0
0 0.59375 0
0.03125 0.59375 0
0 0.625 0
0.03125 0.625 0
0.03125 0.59375 0
0.0625 0.59375 0
0.03125 0.625 0
0.0625 0.625 0
0.0625 0.5625 0
0.09375 0.5625 0
0.0625 0.59375 0
0.09375 0.59375 0
0.09375 0.5625 0
0.125 0.5625 0
0.09375 0.59375 0
0.125 0.59375 0
0.0625 0.59375 0
0.09375 0.59375 0
0.0625 0.625 0
0.09375 0.625 0
0.09375 0.59375 0
0.125 0.59375 0
0.09375 0.625 0
0.125 0.625 0
0.125 0.5 0
0.15625 0.5 0
0.125 0.53125 0
0.15625 0.53125 0
0.15625 0.5 0
0.1875 0.5 0
0.15625 0.53125 0
0.1875 0.53125 0
0.125 0.53125 0
0.15625 0.53125 0
0.125 0.5625 0
0.15625 0.5625 0
0.15625 0.53125 0
0.1875 0.53125 0
0.15625 0.5625 0
0.1875 0.5625 0
0.1875 0.5 0
0.21875 0.5 0
0.1875 0.53125 0
0.21875 0.53125 0
0.21875 0.5 0
0.25 0.5 0
0.21875 0.53125 0
0.25 0.53125 0
0.1875 0.53125 0
0.21875 0.53125 0
0.1875 0.5625 0
0.21875 0.5625 0
0.21875 0.53125 0
0.25 0.53125 0
0.21875 0.5625 0
0.25 0.5625 0
0.125 0.5625 0
0.15625 0.5625 0
0.125 0.59375 0
0.15625 0.59375 0
0.15625 0.5625 0
0.1875 0.5625 0
0.15625 0.59375 0
0.1875 0.59375 0
0.125 0.59375 0
0.15625 0.59375 0
0.125 0.625 0
0.15625 0.625 0
0.15625 0.59375 0
0.1875 0.59375 0
0.15625 0.625 0
0.1875 0.625 0
0.1875 0.5625 0
0.21875 0.5625 0
0.1875 0.59375 0
0.21875 0.59375 0
0.21875 0.5625 0
0.25 0.5625 0
0.21875 0.59375 0
0.25 0.59375 0
0.1875 0.59375 0
0.21875 0.59375 0
0.1875 0.625 0
0.21875 0.625 0
0.21875 0.59375 0
0.25 0.59375 0
0.21875 0.625 0
0.25 0.625 0
0 0.625 0
0.03125 0.625 0
0 0.65625 0
0.03125 0.65625 0
0.03125 0.625 0
0.0625 0.625 0
0.03125 0.65625 0
0.0625 0.65625 0
0 0.65625 0
0.03125 0.65625 0
0 0.6875 0
0.03125 0.6875 0
0.03125 0.65625 0
0.0625 0.65625 0
0.03125 0.6875 0
0.0625 0.6875 0
0.0625 0.625 0
0.09375 0.625 0
0.0625 0.65625 0
0.09375 0.65625 0
0.09375 0.625 0
0.125 0.625 0
0.09375 0.65625 0
0.125 0.65625 0
0.0625 0.65625 0
0.09375 0.65625 0
0.0625 0.6875 0
0.09375 0.6875 0
0.09375 0.65625 0
0.125 0.65625 0
0.09375 0.6875 0
0.125 0.6875 0
0 0.6875 0
0.03125 0.6875 0
0 0.71875 0
0.03125 0.71875 0
0.03125 0.6875 0
0.0625 0.6875 0
0.03125 0.71875 0
0.0625 0.71875 0
0 0.71875 0
0.03125 0.71875 0
0 0.75 0
0.03125 0.75 0
0.03125 0.71875 0
0.0625 0.71875 0
0.03125 0.75 0
0.0625 0.75 0
0.0625 0.6875 0
0.09375 0.6875 0
0.0625 0.71875 0
0.09375 0.71875 0
0.09375 0.6875 0
0.125 0.6875 0
0.09375 0.71875 0
0.125 0.71875 0
0.0625 0.71875 0
0.09375 0.71875 0
0.0625 0.75 0
0.09375 0.75 0
0.09375 0.71875 0
0.125 0.71875 0
0.09375 0.75 0
0.125 0.75 0
0.125 0.625 0
0.15625 0.625 0
0.125 0.65625 0
0.15625 0.65625 0
0.15625 0.625 0
0.1875 0.625 0
0.15625 0.65625 0
0.1875 0.65625 0
0.125 0.65625 0
0.15625 0.65625 0
0.125 0.6875 0
0.15625 0.6875 0
0.15625 0.65625 0
0.1875 0.65625 0
0.15625 0.6875 0
0.1875 0.6875 0
0.1875 0.625 0
0.21875 0.625 0
0.1875 0.65625 0
0.21875 0.65625 0
0.21875 0.625 0
0.25 0.625 0
0.21875 0.65625 0
0.25 0.65625 0
0.1875 0.65625 0
0.21875 0.65625 0
0.1875 0.6875 0
0.21875 0.6875 0
0.21875 0.65625 0
0.25 0.65625 0
0.21875 0.6875 0
0.25 0.6875 0
0.125 0.6875 0
0.15625 0.6875 0
0.125 0.71875 0
0.15625 0.71875 0
0.15625 0.6875 0
0.1875 0.6875 0
0.15625 0.71875 0
0.1875 0.71875 0
0.125 0.71875 0
0.15625 0.71875 0
0.125 0.75 0
0.15625 0.75 0
0.15625 0.71875 0
0.1875 0.71875 0
0.15625 0.75 0
0.1875 0.75 0
0.1875 0.6875 0
0.21875 0.6875 0
0.1875 0.71875 0
0.21875 0.71875 0
0.21875 0.6875 0
0.25 0.6875 0
0.21875 0.71875 0
0.25 0.71875 0
0.1875 0.71875 0
0.21875 0.71875 0
0.1875 0.75 0
0.21875 0.75 0
0.21875 0.71875 0
0.25 0.71875 0
0.21875 0.75 0
0.25 0.75 0
0.25 0.5 0
0.28125 0.5 0
0.25 0.53125 0
0.28125 0.53125 0
0.28125 0.5 0
0.3125 0.5 0
0.28125 0.53125 0
0.3125 0.53125 0
0.25 0.53125 0
0.28125 0.53125 0
0.25 0.5625 0
0.28125 0.5625 0
0.28125 0.53125 0
0.3125 0.53125 0
0.28125 0.5625 0
0.3125 0.5625 0
0.3125 0.5 0
0.34375 0.5 0
0.3125 0.53125 0
0.34375 0.53125 0
0.34375 0.5 0
0.375 0.5 0
0.34375 0.53125 0
0.375 0.53125 0
0.3125 0.53125 0
0.34375 0.53125 0
0.3125 0.5625 0
0.34375 0.5625 0
0.34375 0.53125 0
0.375 0.53125 0
0.34375 0.5625 0
0.375 0.5625 0
0.25 0.5625 0
0.28125 0.5625 0
0.25 0.59375 0
0.28125 0.59375 0
0.28125 0.5625 0
0.3125 0.5625 0
0.28125 0.59375 0
0.3125 0.59375 0
0.25 0.59375 0
0.28125 0.59375 0
0.25 0.625 0
0.28125 0.625 0
0.28125 0.59375 0
0.3125 0.59375 0
0.28125 0.625 0
0.3125 0.625 0
0.3125 0.5625 0
0.34375 0.5625 0
0.3125 0.59375 0
0.34375 0.59375 0
0.34375 0.5625 0
0.375 0.5625 0
0.34375 0.59375 0
0.375 0.59375 0
0.3125 0.59375 0
0.34375 0.59375 0
0.3125 0.625 0
0.34375 0.625 0
0.34375 0.59375 0
0.375 0.59375 0
0.34375 0.625 0
0.375 0.625 0
0.375 0.5 0
0.40625 0.5 0
0.375 0.53125 0
0.40625 0.53125 0
0.40625 0.5 0
0.4375 0.5 0
0.40625 0.53125 0
0.4375 0.53125 0
0.375 0.53125 0
0.40625 0.53125 0
0.375 0.5625 0
0.40625 0.5625 0
0.40625 0.53125 0
0.4375 0.53125 0
0.40625 0.5625 0
0.4375 0.5625 0
0.4375 0.5 0
0.46875 0.5 0
0.4375 0.53125 0
0.46875 0.53125 0
0.46875 0.5 0
0.5 0.5 0
0.46875 0.53125 0
0.5 0.53125 0
0.4375 0.53125 0
0.46875 0.53125 0
0.4375 0.5625 0
0.46875 0.5625 0
0.46875 0.53125 0
0.5 0.53125 0
0.46875 0.5625 0
0.5 0.5625 0
0.375 0.5625 0
0.40625 0.5625 0
0.375 0.59375 0
0.40625 0.59375 0
0.40625 0.5625 0
0.4375 0.5625 0
0.40625 0.59375 0
0.4375 0.59375 0
0.375 0.59375 0
0.40625 0.59375 0
0.375 0.625 0
0.40625 0.625 0
0.40625 0.59375 0
0.4375 0.59375 0
0.40625 0.625 0
0.4375 0.625 0
0.4375 0.5625 0
0.46875 0.5625 0
0.4375 0.59375 0
0.46875 0.59375 0
0.46875 0.5625 0
0.5 0.5625 0
0.46875 0.59375 0
0.5 0.59375 0
0.4375 0.59375 0
0.46875 0.59375 0
0.4375 0.625 0
0.46875 0.625 0
0.46875 0.59375 0
0.5 0.59375 0
0.46875 0.625 0
0.5 0.625 0
0.25 0.625 0
0.28125 0.625 0
0.25 0.65625 0
0.28125 0.65625 0
0.28125 0.625 0
0.3125 0.625 0
0.28125 0.65625 0
0.3125 0.65625 0
0.25 0.65625 0
0.28125 0.65625 0
0.25 0.6875 0
0.28125 0.6875 0
0.28125 0.65625 0
0.3125 0.65625 0
0.28125 0.6875 0
0.3125 0.6875 0
0.3125 0.625 0
0.34375 0.625 0
0.3125 0.65625 0
0.34375 0.65625 0
0.34375 0.625 0
0.375 0.625 0
0.34375 0.65625 0
0.375 0.65625 0
0.3125 0.65625 0
0.34375 0.65625 0
0.3125 0.6875 0
0.34375 0.6875 0
0.34375 0.65625 0
0.375 0.65625 0
0.34375 0.6875 0
0.375 0.6875 0
0.25 0.6875 0
0.28125 0.6875 0
0.25 0.71875 0
0.28125 0.71875 0
0.28125 0.6875 0
0.3125 0.6875 0
0.28125 0.71875 0
0.3125 0.71875 0
0.25 0.71875 0
0.28125 0.71875 0
0.25 0.75 0
0.28125 0.75 0
0.28125 0.71875 0
0.3125 0.71875 0
0.28125 0.75 0
0.3125 0.75 0
0.3125 0.6875 0
0.34375 0.6875 0
0.3125 0.71875 0
0.34375 0.71875 0
0.34375 0.6875 0
0.375 0.6875 0
0.34375 0.71875 0
0.375 0.71875 0
0.3125 0.71875 0
0.34375 0.71875 0
0.3125 0.75 0
0.34375 0.75 0
0.34375 0.71875 0
0.375 0.71875 0
0.34375 0.75 0
0.375 0.75 0
0.375 0.625 0
0.40625 0.625 0
0.375 0.65625 0
0.40625 0.65625 0
0.40625 0.625 0
0.4375 0.625 0
0.40625 0.65625 0
0.4375 0.65625 0
0.375 0.65625 0
0.40625 0.65625 0
0.375 0.6875 0
0.40625 0.6875 0
0.40625 0.65625 0
0.4375 0.65625 0
0.40625 0.6875 0
0.4375 0.6875 0
0.4375 0.625 0
0.46875 0.625 0
0.4375 0.65625 0
0.46875 0.65625 0
0.46875 0.625 0
0.5 0.625 0
0.46875 0.65625 0
0.5 0.65625 0
0.4375 0.65625 0
0.46875 0.65625 0
0.4375 0.6875 0
0.46875 0.6875 0
0.46875 0.65625 0
0.5 0.65625 0
0.46875 0.6875 0
0.5 0.6875 0
0.375 0.6875 0
0.40625 0.6875 0
0.375 0.71875 0
0.40625 0.71875 0
0.40625 0.6875 0
0.4375 0.6875 0
0.40625 0.71875 0
0.4375 0.71875 0
0.375 0.71875 0
0.40625 0.71875 0
0.375 0.75 0
0.40625 0.75 0
0.40625 0.71875 0
0.4375 0.71875 0
0.40625 0.75 0
0.4375 0.75 0
0.4375 0.6875 0
0.46875 0.6875 0
0.4375 0.71875 0
0.46875 0.71875 0
0.46875 0.6875 0
0.5 0.6875 0
0.46875 0.71875 0
0.5 0.71875 0
0.4375 0.71875 0
0.46875 0.71875 0
0.4375 0.75 0
0.46875 0.75 0
0.46875 0.71875 0
0.5 0.71875 0
0.46875 0.75 0
0.5 0.75 0
0 0.75 0
0.03125 0.75 0
0 0.78125 0
0.03125 0.78125 0
0.03125 0.75 0
0.0625 0.75 0
0.03125 0.78125 0
0.0625 0.78125 0
0 0.78125 0
0.03125 0.78125 0
0 0.8125 0
0.03125 0.8125 0
0.03125 0.78125 0
0.0625 0.78125 0
0.03125 0.8125 0
0.0625 0.8125 0
0.0625 0.75 0
0.09375 0.75 0
0.0625 0.78125 0
0.09375 0.78125 0
0.09375 0.75 0
0.125 0.75 0
0.09375 0.78125 0
0.125 0.78125 0
0.0625 0.78125 0
0.09375 0.78125 0
0.0625 0.8125 0
0.09375 0.8125 0
0.09375 0.78125 0
0.125 0.78125 0
0.09375 0.8125 0
0.125 0.8125 0
0 0.8125 0
0.03125 0.8125 0
0 0.84375 0
0.03125 0.84375 0
0.03125 0.8125 0
0.0625 0.8125 0
0.03125 0.84375 0
0.0625 0.84375 0
0 0.84375 0
0.03125 0.84375 0
0 0.875 0
0.03125 0.875 0
0.03125 0.84375 0
0.0625 0.84375 0
0.03125 0.875 0
0.0625 0.875 0
0.0625 0.8125 0
0.09375 0.8125 0
0.0625 0.84375 0
0.09375 0.84375 0
0.09375 0.8125 0
0.125 0.8125 0
0.09375 0.84375 0
0.125 0.84375 0
0.0625 0.84375 0
0.09375 0.84375 0
0.0625 0.875 0
0.09375 0.875 0
0.09375 0.84375 0
0.125 0.84375 0
0.09375 0.875 0
0.125 0.875 0
0.125 0.75 0
0.15625 0.75 0
0.125 0.78125 0
0.15625 0.78125 0
0.15625 0.75 0
0.1875 0.75 0
0.15625 0.78125 0
0.1875 0.78125 0
0.125 0.78125 0
0.15625 0.78125 0
0.125 0.8125 0
0.15625 0.8125 0
0.15625 0.78125 0
0.1875 0.78125 0
0.15625 0.8125 0
0.1875 0.8125 0
0.1875 0.75 0
0.21875 0.75 0
0.1875 0.78125 0
0.21875 0.78125 0
0.21875 0.75 0
0.25 0.75 0
0.21875 0.78125 0
0.25 0.78125 0
0.1875 0.78125 0
0.21875 0.78125 0
0.1875 0.8125 0
0.21875 0.8125 0
0.21875 0.78125 0
0.25 0.78125 0
0.21875 0.8125 0
0.25 0.8125 0
0.125 0.8125 0
0.15625 0.8125 0
0.125 0.84375 0
0.15625 0.84375 0
0.15625 0.8125 0
[...]
POINT_DATA 4096
SCALARS State_InstatPDEProblemContainer_0 double 1
LOOKUP_TABLE default
-0.00150982 -0.00150936 -0.00161522 -0.00161488 -0.00150936 -0.00150893 -0.00161488 -0.00161481 -0.00161522 -0.00161488 -0.00172007 -0.00171986 -0.00161488 -0.00161481 -0.00171986 -0.00172013 -0.00150893 -0.00150851 -0.00161481 -0.00161501 -0.00150851 -0.00150811 -0.00161501 -0.0016155 -0.00161481 -0.00161501 -0.00172013 -0.0017209 -0.00161501 -0.0016155 -0.0017209 -0.00172223 -0.00172007 -0.00171986 -0.00182396 -0.00182385 -0.00171986 -0.00172013 -0.00182385 -0.00182442 -0.00182396 -0.00182385 -0.00192648 -0.00192648 -0.00182385 -0.00182442 -0.00192648 -0.00192729 -0.00172013 -0.0017209 -0.00182442 -0.0018257 -0.0017209 -0.00172223 -0.0018257 -0.00182772 -0.00182442 -0.0018257 -0.00192729 -0.00192895 -0.0018257 -0.00182772 -0.00192895 -0.00193152 -0.00150811 -0.00150772 -0.0016155 -0.00161632 -0.00150772 -0.00150734 -0.00161632 -0.00161752 -0.0016155 -0.00161632 -0.00172223 -0.00172416 -0.00161632 -0.00161752 -0.00172416 -0.0017268 -0.00150734 -0.00150696 -0.00161752 -0.00161918 -0.00150696 -0.00150659 -0.00161918 -0.00162141 -0.00161752 -0.00161918 -0.0017268 -0.00173029 -0.00161918 -0.00162141 -0.00173029 -0.00173483 -0.00172223 -0.00172416 -0.00182772 -0.00183059 -0.00172416 -0.0017268 -0.00183059 -0.00183442 -0.00182772 -0.00183059 -0.00193152 -0.00193509 -0.00183059 -0.00183442 -0.00193509 -0.00193978 -0.0017268 -0.00173029 -0.00183442 -0.00183937 -0.00173029 -0.00173483 -0.00183937 -0.0018457 -0.00183442 -0.00183937 -0.00193978 -0.00194575 -0.00183937 -0.0018457 -0.00194575 -0.00195321 -0.00192648 -0.00192648 -0.00202733 -0.0020274 -0.00192648 -0.00192729 -0.0020274 -0.00202838 -0.00202733 -0.0020274 -0.00212625 -0.00212637 -0.0020274 -0.00202838 -0.00212637 -0.00212746 -0.00192729 -0.00192895 -0.00202838 -0.00203032 -0.00192895 -0.00193152 -0.00203032 -0.00203325 -0.00202838 -0.00203032 -0.00212746 -0.00212954 -0.00203032 -0.00203325 -0.00212954 -0.00213267 -0.00212625 -0.00212637 -0.00222306 -0.00222321 -0.00212637 -0.00212746 -0.00222321 -0.00222434 -0.00222306 -0.00222321 -0.00231766 -0.00231782 -0.00222321 -0.00222434 -0.00231782 -0.00231893 -0.00212746 -0.00212954 -0.00222434 -0.00222646 -0.00212954 -0.00213267 -0.00222646 -0.00222961 -0.00222434 -0.00222646 -0.00231893 -0.002321 -0.00222646 -0.00222961 -0.002321 -0.00232404 -0.00193152 -0.00193509 -0.00203325 -0.00203727 -0.00193509 -0.00193978 -0.00203727 -0.00204247 -0.00203325 -0.00203727 -0.00213267 -0.00213688 -0.00203727 -0.00204247 -0.00213688 -0.00214227 -0.00193978 -0.00194575 -0.00204247 -0.00204898 -0.00194575 -0.00195321 -0.00204898 -0.00205698 -0.00204247 -0.00204898 -0.00214227 -0.00214892 -0.00204898 -0.00205698 -0.00214892 -0.00215692 -0.00213267 -0.00213688 -0.00222961 -0.00223382 -0.00213688 -0.00214227 -0.00223382 -0.00223912 -0.00222961 -0.00223382 -0.00232404 -0.00232807 -0.00223382 -0.00223912 -0.00232807 -0.00233308 -0.00214227 -0.00214892 -0.00223912 -0.00224557 -0.00214892 -0.00215692 -0.00224557 -0.00225318 -0.00223912 -0.00224557 -0.00233308 -0.00233908 -0.00224557 -0.00225318 -0.00233908 -0.00234604 -0.00150659 -0.0015062 -0.00162141 -0.00162439 -0.0015062 -0.0015058 -0.00162439 -0.00162839 -0.00162141 -0.00162439 -0.00173483 -0.00174072 -0.00162439 -0.00162839 -0.00174072 -0.0017484 -0.0015058 -0.00150537 -0.00162839 -0.00163385 -0.00150537 -0.0015049 -0.00163385 -0.00164152 -0.00162839 -0.00163385 -0.0017484 -0.00175853 -0.00163385 -0.00164152 -0.00175853 -0.00177216 -0.00173483 -0.00174072 -0.0018457 -0.00185371 -0.00174072 -0.0017484 -0.00185371 -0.00186388 -0.0018457 -0.00185371 -0.00195321 -0.00196246 -0.00185371 -0.00186388 -0.00196246 -0.00197384 -0.0017484 -0.00175853 -0.00186388 -0.0018768 -0.00175853 -0.00177216 -0.0018768 -0.00189331 -0.00186388 -0.0018768 -0.00197384 -0.00198774 -0.0018768 -0.00189331 -0.00198774 -0.00200455 -0.0015049 -0.00150433 -0.00164152 -0.00165284 -0.00150433 -0.00150357 -0.00165284 -0.00167084 -0.00164152 -0.00165284 -0.00177216 -0.00179098 -0.00165284 -0.00167084 -0.00179098 -0.0018175 -0.00150357 -0.00150224 -0.00167084 -0.00170243 -0.00150224 -0.00150053 -0.00170243 -0.00177085 -0.00167084 -0.00170243 -0.0018175 -0.00185547 -0.00170243 -0.00177085 -0.00185547 -0.0018954 -0.00177216 -0.00179098 -0.00189331 -0.00191434 -0.00179098 -0.0018175 -0.00191434 -0.00194064 -0.00189331 -0.00191434 -0.00200455 -0.00202443 -0.00191434 -0.00194064 -0.00202443 -0.00204677 -0.0018175 -0.00185547 -0.00194064 -0.00197023 -0.00185547 -0.0018954 -0.00197023 -0.0020006 -0.00194064 -0.00197023 -0.00204677 -0.0020702 -0.00197023 -0.0020006 -0.0020702 -0.00209272 -0.00195321 -0.00196246 -0.00205698 -0.00206664 -0.00196246 -0.00197384 -0.00206664 -0.00207817 -0.00205698 -0.00206664 -0.00215692 -0.00216635 -0.00206664 -0.00207817 -0.00216635 -0.00217728 -0.00197384 -0.00198774 -0.00207817 -0.00209171 -0.00198774 -0.00200455 -0.00209171 -0.00210728 -0.00207817 -0.00209171 -0.00217728 -0.00218967 -0.00209171 -0.00210728 -0.00218967 -0.00220333 -0.00215692 -0.00216635 -0.00225318 -0.00226196 -0.00216635 -0.00217728 -0.00226196 -0.00227185 -0.00225318 -0.00226196 -0.00234604 -0.00235391 -0.00226196 -0.00227185 -0.00235391 -0.00236256 -0.00217728 -0.00218967 -0.00227185 -0.00228272 -0.00218967 -0.00220333 -0.00228272 -0.00229429 -0.00227185 -0.00228272 -0.00236256 -0.0023718 -0.00228272 -0.00229429 -0.0023718 -0.00238135 -0.00200455 -0.00202443 -0.00210728 -0.0021246 -0.00202443 -0.00204677 -0.0021246 -0.00214294 -0.00210728 -0.0021246 -0.00220333 -0.00221785 -0.0021246 -0.00214294 -0.00221785 -0.00223257 -0.00204677 -0.0020702 -0.00214294 -0.00216119 -0.0020702 -0.00209272 -0.00216119 -0.00217837 -0.00214294 -0.00216119 -0.00223257 -0.00224677 -0.00216119 -0.00217837 -0.00224677 -0.00225987 -0.00220333 -0.00221785 -0.00229429 -0.00230616 -0.00221785 -0.00223257 -0.00230616 -0.00231782 -0.00229429 -0.00230616 -0.00238135 -0.00239087 -0.00230616 -0.00231782 -0.00239087 -0.00239996 -0.00223257 -0.00224677 -0.00231782 -0.00232877 -0.00224677 -0.00225987 -0.00232877 -0.0023387 -0.00231782 -0.00232877 -0.00239996 -0.0024083 -0.00232877 -0.0023387 -0.0024083 -0.00241569 -0.00231766 -0.00231782 -0.00241001 -0.00241017 -0.00231782 -0.00231893 -0.00241017 -0.00241122 -0.00241001 -0.00241017 -0.00250013 -0.00250027 -0.00241017 -0.00241122 -0.00250027 -0.00250121 -0.00231893 -0.002321 -0.00241122 -0.00241315 -0.002321 -0.00232404 -0.00241315 -0.00241598 -0.00241122 -0.00241315 -0.00250121 -0.00250296 -0.00241315 -0.00241598 -0.00250296 -0.00250551 -0.00250013 -0.00250027 -0.00258808 -0.00258819 -0.00250027 -0.00250121 -0.00258819 -0.00258901 -0.00258808 -0.00258819 -0.00267398 -0.00267405 -0.00258819 -0.00258901 -0.00267405 -0.00267471 -0.00250121 -0.00250296 -0.00258901 -0.00259053 -0.00250296 -0.00250551 -0.00259053 -0.00259273 -0.00258901 -0.00259053 -0.00267471 -0.00267597 -0.00259053 -0.00259273 -0.00267597 -0.0026778 -0.00232404 -0.00232807 -0.00241598 -0.00241969 -0.00232807 -0.00233308 -0.00241969 -0.00242427 -0.00241598 -0.00241969 -0.00250551 -0.00250882 -0.00241969 -0.00242427 -0.00250882 -0.00251286 -0.00233308 -0.00233908 -0.00242427 -0.00242967 -0.00233908 -0.00234604 -0.00242967 -0.00243584 -0.00242427 -0.00242967 -0.00251286 -0.00251757 -0.00242967 -0.00243584 -0.00251757 -0.00252287 -0.00250551 -0.00250882 -0.00259273 -0.00259558 -0.00250882 -0.00251286 -0.00259558 -0.00259903 -0.00259273 -0.00259558 -0.0026778 -0.00268015 -0.00259558 -0.00259903 -0.00268015 -0.00268298 -0.00251286 -0.00251757 -0.00259903 -0.00260301 -0.00251757 -0.00252287 -0.00260301 -0.00260743 -0.00259903 -0.00260301 -0.00268298 -0.00268622 -0.00260301 -0.00260743 -0.00268622 -0.00268976 -0.00267398 -0.00267405 -0.00275795 -0.00275797 -0.00267405 -0.00267471 -0.00275797 -0.00275847 -0.00275795 -0.00275797 -0.00284017 -0.00284014 -0.00275797 -0.00275847 -0.00284014 -0.00284046 -0.00267471 -0.00267597 -0.00275847 -0.00275945 -0.00267597 -0.0026778 -0.00275945 -0.00276087 -0.00275847 -0.00275945 -0.00284046 -0.00284113 -0.00275945 -0.00276087 -0.00284113 -0.00284212 -0.00284017 -0.00284014 -0.00292083 -0.00292073 -0.00284014 -0.00284046 -0.00292073 -0.00292088 -0.00292083 -0.00292073 -0.003 -0.003 -0.00292073 -0.00292088 -0.003 -0.003 -0.00284046 -0.00284113 -0.00292088 -0.00292123 -0.00284113 -0.00284212 -0.00292123 -0.00292175 -0.00292088 -0.00292123 -0.003 -0.003 -0.00292123 -0.00292175 -0.003 -0.003 -0.0026778 -0.00268015 -0.00276087 -0.0027627 -0.00268015 -0.00268298 -0.0027627 -0.00276489 -0.00276087 -0.0027627 -0.00284212 -0.0028434 -0.0027627 -0.00276489 -0.0028434 -0.00284492 -0.00268298 -0.00268622 -0.00276489 -0.00276737 -0.00268622 -0.00268976 -0.00276737 -0.00277006 -0.00276489 -0.00276737 -0.00284492 -0.00284663 -0.00276737 -0.00277006 -0.00284663 -0.00284847 -0.00284212 -0.0028434 -0.00292175 -0.00292243 -0.0028434 -0.00284492 -0.00292243 -0.00292323 -0.00292175 -0.00292243 -0.003 -0.003 -0.00292243 -0.00292323 -0.003 -0.003 -0.00284492 -0.00284663 -0.00292323 -0.00292413 -0.00284663 -0.00284847 -0.00292413 -0.00292509 -0.00292323 -0.00292413 -0.003 -0.003 -0.00292413 -0.00292509 -0.003 -0.003 -0.00234604 -0.00235391 -0.00243584 -0.00244266 -0.00235391 -0.00236256 -0.00244266 -0.00245001 -0.00243584 -0.00244266 -0.00252287 -0.00252863 -0.00244266 -0.00245001 -0.00252863 -0.00253471 -0.00236256 -0.0023718 -0.00245001 -0.00245767 -0.0023718 -0.00238135 -0.00245767 -0.00246539 -0.00245001 -0.00245767 -0.00253471 -0.00254091 -0.00245767 -0.00246539 -0.00254091 -0.002547 -0.00252287 -0.00252863 -0.00260743 -0.00261216 -0.00252863 -0.00253471 -0.00261216 -0.00261705 -0.00260743 -0.00261216 -0.00268976 -0.0026935 -0.00261216 -0.00261705 -0.0026935 -0.0026973 -0.00253471 -0.00254091 -0.00261705 -0.00262193 -0.00254091 -0.002547 -0.00262193 -0.0026266 -0.00261705 -0.00262193 -0.0026973 -0.00270101 -0.00262193 -0.0026266 -0.00270101 -0.00270447 -0.00238135 -0.00239087 -0.00246539 -0.00247287 -0.00239087 -0.00239996 -0.00247287 -0.00247983 -0.00246539 -0.00247287 -0.002547 -0.00255275 -0.00247287 -0.00247983 -0.00255275 -0.00255794 -0.00239996 -0.0024083 -0.00247983 -0.00248604 -0.0024083 -0.00241569 -0.00248604 -0.0024914 -0.00247983 -0.00248604 -0.00255794 -0.00256243 -0.00248604 -0.0024914 -0.00256243 -0.00256615 -0.002547 -0.00255275 -0.0026266 -0.00263089 -0.00255275 -0.00255794 -0.00263089 -0.00263464 -0.0026266 -0.00263089 -0.00270447 -0.00270755 -0.00263089 -0.00263464 -0.00270755 -0.00271012 -0.00255794 -0.00256243 -0.00263464 -0.00263774 -0.00256243 -0.00256615 -0.00263774 -0.00264015 -0.00263464 -0.00263774 -0.00271012 -0.00271211 -0.00263774 -0.00264015 -0.00271211 -0.00271352 -0.00268976 -0.0026935 -0.00277006 -0.00277286 -0.0026935 -0.0026973 -0.00277286 -0.00277565 -0.00277006 -0.00277286 -0.00284847 -0.00285036 -0.00277286 -0.00277565 -0.00285036 -0.00285221 -0.0026973 -0.00270101 -0.00277565 -0.00277832 -0.00270101 -0.00270447 -0.00277832 -0.00278075 -0.00277565 -0.00277832 -0.00285221 -0.00285395 -0.00277832 -0.00278075 -0.00285395 -0.00285549 -0.00284847 -0.00285036 -0.00292509 -0.00292607 -0.00285036 -0.00285221 -0.00292607 -0.00292701 -0.00292509 -0.00292607 -0.003 -0.003 -0.00292607 -0.00292701 -0.003 -0.003 -0.00285221 -0.00285395 -0.00292701 -0.00292788 -0.00285395 -0.00285549 -0.00292788 -0.00292862 -0.00292701 -0.00292788 -0.003 -0.003 -0.00292788 -0.00292862 -0.003 -0.003 -0.00270447 -0.00270755 -0.00278075 -0.00278282 -0.00270755 -0.00271012 -0.00278282 -0.00278446 -0.00278075 -0.00278282 -0.00285549 -0.00285674 -0.00278282 -0.00278446 -0.00285674 -0.00285765 -0.00271012 -0.00271211 -0.00278446 -0.00278561 -0.00271211 -0.00271352 -0.00278561 -0.00278627 -0.00278446 -0.00278561 -0.00285765 -0.00285819 -0.00278561 -0.00278627 -0.00285819 -0.00285837 -0.00285549 -0.00285674 -0.00292862 -0.0029292 -0.00285674 -0.00285765 -0.0029292 -0.00292957 -0.00292862 -0.0029292 -0.003 -0.003 -0.0029292 -0.00292957 -0.003 -0.003 -0.00285765 -0.00285819 -0.00292957 -0.00292973 -0.00285819 -0.00285837 -0.00292973 -0.00292968 -0.00292957 -0.00292973 -0.003 -0.003 -0.00292973 -0.00292968 -0.003 -0.003 -0.00150053 -0.00172859 -0.00177085 -0.00182581 -0.00172859 -0.00186394 -0.00182581 -0.00190162 -0.00177085 -0.00182581 -0.0018954 -0.001937 -0.00182581 -0.00190162 -0.001937 -0.00197709 -0.00186394 -0.00195583 -0.00190162 -0.00197306 -0.00195583 -0.00202533 -0.00197306 -0.0020341 -0.00190162 -0.00197306 -0.00197709 -0.00202301 -0.00197306 -0.0020341 -0.00202301 -0.00206868 -0.0018954 -0.001937 -0.0020006 -0.00202868 -0.001937 -0.00197709 -0.00202868 -0.00205699 -0.0020006 -0.00202868 -0.00209272 -0.00211375 -0.00202868 -0.00205699 -0.00211375 -0.00213405 -0.00197709 -0.00202301 -0.00205699 -0.00208706 -0.00202301 -0.00206868 -0.00208706 -0.0021192 -0.00205699 -0.00208706 -0.00213405 -0.0021553 -0.00208706 -0.0021192 -0.0021553 -0.00217795 -0.00202533 -0.00208068 -0.0020341 -0.00208544 -0.00208068 -0.00212594 -0.00208544 -0.00212864 -0.0020341 -0.00208544 -0.00206868 -0.00211075 -0.00208544 -0.00212864 -0.00211075 -0.00214816 -0.00212594 -0.00216343 -0.00212864 -0.00216506 -0.00216343 -0.00219463 -0.00216506 -0.00219572 -0.00212864 -0.00216506 -0.00214816 -0.00218082 -0.00216506 -0.00219572 -0.00218082 -0.00220898 -0.00206868 -0.00211075 -0.0021192 -0.00215118 -0.00211075 -0.00214816 -0.00215118 -0.00218133 -0.0021192 -0.00215118 -0.00217795 -0.00220142 -0.00215118 -0.00218133 -0.00220142 -0.0022246 -0.00214816 -0.00218082 -0.00218133 -0.00220879 -0.00218082 -0.00220898 -0.00220879 -0.00223319 -0.00218133 -0.00220879 -0.0022246 -0.00224657 -0.00220879 -0.00223319 -0.00224657 -0.00226672 -0.00209272 -0.00211375 -0.00217837 -0.00219416 -0.00211375 -0.00213405 -0.00219416 -0.00220922 -0.00217837 -0.00219416 -0.00225987 -0.00227179 -0.00219416 -0.00220922 -0.00227179 -0.00228294 -0.00213405 -0.0021553 -0.00220922 -0.00222452 -0.0021553 -0.00217795 -0.00222452 -0.0022407 -0.00220922 -0.00222452 -0.00228294 -0.00229403 -0.00222452 -0.0022407 -0.00229403 -0.00230556 -0.00225987 -0.00227179 -0.0023387 -0.00234758 -0.00227179 -0.00228294 -0.00234758 -0.00235575 -0.0023387 -0.00234758 -0.00241569 -0.00242217 -0.00234758 -0.00235575 -0.00242217 -0.00242797 -0.00228294 -0.00229403 -0.00235575 -0.00236366 -0.00229403 -0.00230556 -0.00236366 -0.00237176 -0.00235575 -0.00236366 -0.00242797 -0.00243344 -0.00236366 -0.00237176 -0.00243344 -0.00243893 -0.00217795 -0.00220142 -0.0022407 -0.00225769 -0.00220142 -0.0022246 -0.00225769 -0.00227497 -0.0022407 -0.00225769 -0.00230556 -0.00231772 -0.00225769 -0.00227497 -0.00231772 -0.00233029 -0.0022246 -0.00224657 -0.00227497 -0.00229189 -0.00224657 -0.00226672 -0.00229189 -0.00230786 -0.00227497 -0.00229189 -0.00233029 -0.0023429 -0.00229189 -0.00230786 -0.0023429 -0.0023551 -0.00230556 -0.00231772 -0.00237176 -0.00238027 -0.00231772 -0.00233029 -0.00238027 -0.00238916 -0.00237176 -0.00238027 -0.00243893 -0.00244465 -0.00238027 -0.00238916 -0.00244465 -0.00245068 -0.00233029 -0.0023429 -0.00238916 -0.00239824 -0.0023429 -0.0023551 -0.00239824 -0.00240722 -0.00238916 -0.00239824 -0.00245068 -0.00245694 -0.00239824 -0.00240722 -0.00245694 -0.00246326 -0.00219463 -0.00222054 -0.00219572 -0.00222141 -0.00222054 -0.00224188 -0.00222141 -0.00224271 -0.00219572 -0.00222141 -0.00220898 -0.00223298 -0.00222141 -0.00224271 -0.00223298 -0.00225313 -0.00224188 -0.0022592 -0.00224271 -0.0022601 -0.0022592 -0.00227289 -0.0022601 -0.0022739 -0.00224271 -0.0022601 -0.00225313 -0.00226972 -0.0022601 -0.0022739 -0.00226972 -0.00228299 -0.00220898 -0.00223298 -0.00223319 -0.00225446 -0.00223298 -0.00225313 -0.00225446 -0.00227261 -0.00223319 -0.00225446 -0.00226672 -0.00228471 -0.00225446 -0.00227261 -0.00228471 -0.00230037 -0.00225313 -0.00226972 -0.00227261 -0.00228775 -0.00226972 -0.00228299 -0.00228775 -0.00229996 -0.00227261 -0.00228775 -0.00230037 -0.00231361 -0.00228775 -0.00229996 -0.00231361 -0.00232441 -0.00227289 -0.00228326 -0.0022739 -0.00228438 -0.00228326 -0.00229052 -0.00228438 -0.00229174 -0.0022739 -0.00228438 -0.00228299 -0.00229311 -0.00228438 -0.00229174 -0.00229311 -0.00230025 -0.00229052 -0.00229482 -0.00229174 -0.0022961 -0.00229482 -0.00229624 -0.0022961 -0.00229754 -0.00229174 -0.0022961 -0.00230025 -0.00230448 -0.0022961 -0.00229754 -0.00230448 -0.00230589 -0.00228299 -0.00229311 -0.00229996 -0.00230935 -0.00229311 -0.00230025 -0.00230935 -0.00231599 -0.00229996 -0.00230935 -0.00232441 -0.00233277 -0.00230935 -0.00231599 -0.00233277 -0.00233873 -0.00230025 -0.00230448 -0.00231599 -0.00231995 -0.00230448 -0.00230589 -0.00231995 -0.00232125 -0.00231599 -0.00231995 -0.00233873 -0.00234228 -0.00231995 -0.00232125 -0.00234228 -0.00234346 -0.00226672 -0.00228471 -0.00230786 -0.00232247 -0.00228471 -0.00230037 -0.00232247 -0.00233544 -0.00230786 -0.00232247 -0.0023551 -0.00236652 -0.00232247 -0.00233544 -0.00236652 -0.00237685 -0.00230037 -0.00231361 -0.00233544 -0.00234657 -0.00231361 -0.00232441 -0.00234657 -0.00235576 -0.00233544 -0.00234657 -0.00237685 -0.00238586 -0.00234657 -0.00235576 -0.00238586 -0.00239339 -0.0023551 -0.00236652 -0.00240722 -0.0024158 -0.00236652 -0.00237685 -0.0024158 -0.00242371 -0.00240722 -0.0024158 -0.00246326 -0.00246943 -0.0024158 -0.00242371 -0.00246943 -0.00247521 -0.00237685 -0.00238586 -0.00242371 -0.00243071 -0.00238586 -0.00239339 -0.00243071 -0.00243665 -0.00242371 -0.00243071 -0.00247521 -0.00248043 -0.00243071 -0.00243665 -0.00248043 -0.00248491 -0.00232441 -0.00233277 -0.00235576 -0.00236295 -0.00233277 -0.00233873 -0.00236295 -0.00236809 -0.00235576 -0.00236295 -0.00239339 -0.00239933 -0.00236295 -0.00236809 -0.00239933 -0.00240361 -0.00233873 -0.00234228 -0.00236809 -0.00237117 -0.00234228 -0.00234346 -0.00237117 -0.00237218 -0.00236809 -0.00237117 -0.00240361 -0.00240618 -0.00237117 -0.00237218 -0.00240618 -0.00240702 -0.00239339 -0.00239933 -0.00243665 -0.00244137 -0.00239933 -0.00240361 -0.00244137 -0.0024448 -0.00243665 -0.00244137 -0.00248491 -0.0024885 -0.00244137 -0.0024448 -0.0024885 -0.00249113 -0.00240361 -0.00240618 -0.0024448 -0.00244686 -0.00240618 -0.00240702 -0.00244686 -0.00244751 -0.0024448 -0.00244686 -0.00249113 -0.0024927 -0.00244686 -0.00244751 -0.0024927 -0.00249319 -0.00241569 -0.00242217 -0.0024914 -0.00249594 -0.00242217 -0.00242797 -0.00249594 -0.00249986 -0.0024914 -0.00249594 -0.00256615 -0.00256915 -0.00249594 -0.00249986 -0.00256915 -0.00257157 -0.00242797 -0.00243344 -0.00249986 -0.00250342 -0.00243344 -0.00243893 -0.00250342 -0.00250689 -0.00249986 -0.00250342 -0.00257157 -0.00257364 -0.00250342 -0.00250689 -0.00257364 -0.00257557 -0.00256615 -0.00256915 -0.00264015 -0.00264193 -0.00256915 -0.00257157 -0.00264193 -0.0026432 -0.00264015 -0.00264193 -0.00271352 -0.00271438 -0.00264193 -0.0026432 -0.00271438 -0.00271479 -0.00257157 -0.00257364 -0.0026432 -0.00264414 -0.00257364 -0.00257557 -0.00264414 -0.00264491 -0.0026432 -0.00264414 -0.00271479 -0.00271491 -0.00264414 -0.00264491 -0.00271491 -0.00271486 -0.00243893 -0.00244465 -0.00250689 -0.00251049 -0.00244465 -0.00245068 -0.00251049 -0.00251431 -0.00250689 -0.00251049 -0.00257557 -0.00257755 -0.00251049 -0.00251431 -0.00257755 -0.00257969 -0.00245068 -0.00245694 -0.00251431 -0.00251836 -0.00245694 -0.00246326 -0.00251836 -0.00252254 -0.00251431 -0.00251836 -0.00257969 -0.00258203 -0.00251836 -0.00252254 -0.00258203 -0.00258454 -0.00257557 -0.00257755 -0.00264491 -0.00264569 -0.00257755 -0.00257969 -0.00264569 -0.00264658 -0.00264491 -0.00264569 -0.00271486 -0.0027148 -0.00264569 -0.00264658 -0.0027148 -0.00271483 -0.00257969 -0.00258203 -0.00264658 -0.00264765 -0.00258203 -0.00258454 -0.00264765 -0.0026489 -0.00264658 -0.00264765 -0.00271483 -0.00271501 -0.00264765 -0.0026489 -0.00271501 -0.00271537 -0.00271352 -0.00271438 -0.00278627 -0.00278649 -0.00271438 -0.00271479 -0.00278649 -0.00278634 -0.00278627 -0.00278649 -0.00285837 -0.00285821 -0.00278649 -0.00278634 -0.00285821 -0.00285778 -0.00271479 -0.00271491 -0.00278634 -0.00278593 -0.00271491 -0.00271486 -0.00278593 -0.00278539 -0.0