# vtk DataFile Version 3.0
#This file was generated by the deal.II library on 2018/7/10 at 10:46:55
ASCII
DATASET UNSTRUCTURED_GRID

POINTS 4096 double
0 0.5 0
0.03125 0.5 0
0 0.53125 0
0.03125 0.53125 0
0.03125 0.5 0
0.0625 0.5 0
0.03125 0.53125 0
0.0625 0.53125 0
0 0.53125 0
0.03125 0.53125 0
0 0.5625 0
0.03125 0.5625 0
0.03125 0.53125 0
0.0625 0.53125 0
0.03125 0.5625 0
0.0625 0.5625 0
0.0625 0.5 0
0.09375 0.5 0
0.0625 0.53125 0
0.09375 0.53125 0
0.09375 0.5 0
0.125 0.5 0
0.09375 0.53125 0
0.125 0.53125 0
0.0625 0.53125 0
0.09375 0.53125 0
0.0625 0.5625 0
0.09375 0.5625 0
0.09375 0.53125 0
0.125 0.53125 0
0.09375 0.5625 0
0.125 0.5625 0
0 0.5625 0
0.03125 0.5625 0
0 0.59375 0
0.03125 0.59375 0
0.03125 0.5625 0
0.0625 0.5625 0
0.03125 0.59375 0
0.0625 0.59375 0
0 0.59375 0
0.03125 0.59375 0
0 0.625 0
0.03125 0.625 0
0.03125 0.59375 0
0.0625 0.59375 0
0.03125 0.625 0
0.0625 0.625 0
0.0625 0.5625 0
0.09375 0.5625 0
0.0625 0.59375 0
0.09375 0.59375 0
0.09375 0.5625 0
0.125 0.5625 0
0.09375 0.59375 0
0.125 0.59375 0
0.0625 0.59375 0
0.09375 0.59375 0
0.0625 0.625 0
0.09375 0.625 0
0.09375 0.59375 0
0.125 0.59375 0
0.09375 0.625 0
0.125 0.625 0
0.125 0.5 0
0.15625 0.5 0
0.125 0.53125 0
0.15625 0.53125 0
0.15625 0.5 0
0.1875 0.5 0
0.15625 0.53125 0
0.1875 0.53125 0
0.125 0.53125 0
0.15625 0.53125 0
0.125 0.5625 0
0.15625 0.5625 0
0.15625 0.53125 0
0.1875 0.53125 0
0.15625 0.5625 0
0.1875 0.5625 0
0.1875 0.5 0
0.21875 0.5 0
0.1875 0.53125 0
0.21875 0.53125 0
0.21875 0.5 0
0.25 0.5 0
0.21875 0.53125 0
0.25 0.53125 0
0.1875 0.53125 0
0.21875 0.53125 0
0.1875 0.5625 0
0.21875 0.5625 0
0.21875 0.53125 0
0.25 0.53125 0
0.21875 0.5625 0
0.25 0.5625 0
0.125 0.5625 0
0.15625 0.5625 0
0.125 0.59375 0
0.15625 0.59375 0
0.15625 0.5625 0
0.1875 0.5625 0
0.15625 0.59375 0
0.1875 0.59375 0
0.125 0.59375 0
0.15625 0.59375 0
0.125 0.625 0
0.15625 0.625 0
0.15625 0.59375 0
0.1875 0.59375 0
0.15625 0.625 0
0.1875 0.625 0
0.1875 0.5625 0
0.21875 0.5625 0
0.1875 0.59375 0
0.21875 0.59375 0
0.21875 0.5625 0
0.25 0.5625 0
0.21875 0.59375 0
0.25 0.59375 0
0.1875 0.59375 0
0.21875 0.59375 0
0.1875 0.625 0
0.21875 0.625 0
0.21875 0.59375 0
0.25 0.59375 0
0.21875 0.625 0
0.25 0.625 0
0 0.625 0
0.03125 0.625 0
0 0.65625 0
0.03125 0.65625 0
0.03125 0.625 0
0.0625 0.625 0
0.03125 0.65625 0
0.0625 0.65625 0
0 0.65625 0
0.03125 0.65625 0
0 0.6875 0
0.03125 0.6875 0
0.03125 0.65625 0
0.0625 0.65625 0
0.03125 0.6875 0
0.0625 0.6875 0
0.0625 0.625 0
0.09375 0.625 0
0.0625 0.65625 0
0.09375 0.65625 0
0.09375 0.625 0
0.125 0.625 0
0.09375 0.65625 0
0.125 0.65625 0
0.0625 0.65625 0
0.09375 0.65625 0
0.0625 0.6875 0
0.09375 0.6875 0
0.09375 0.65625 0
0.125 0.65625 0
0.09375 0.6875 0
0.125 0.6875 0
0 0.6875 0
0.03125 0.6875 0
0 0.71875 0
0.03125 0.71875 0
0.03125 0.6875 0
0.0625 0.6875 0
0.03125 0.71875 0
0.0625 0.71875 0
0 0.71875 0
0.03125 0.71875 0
0 0.75 0
0.03125 0.75 0
0.03125 0.71875 0
0.0625 0.71875 0
0.03125 0.75 0
0.0625 0.75 0
0.0625 0.6875 0
0.09375 0.6875 0
0.0625 0.71875 0
0.09375 0.71875 0
0.09375 0.6875 0
0.125 0.6875 0
0.09375 0.71875 0
0.125 0.71875 0
0.0625 0.71875 0
0.09375 0.71875 0
0.0625 0.75 0
0.09375 0.75 0
0.09375 0.71875 0
0.125 0.71875 0
0.09375 0.75 0
0.125 0.75 0
0.125 0.625 0
0.15625 0.625 0
0.125 0.65625 0
0.15625 0.65625 0
0.15625 0.625 0
0.1875 0.625 0
0.15625 0.65625 0
0.1875 0.65625 0
0.125 0.65625 0
0.15625 0.65625 0
0.125 0.6875 0
0.15625 0.6875 0
0.15625 0.65625 0
0.1875 0.65625 0
0.15625 0.6875 0
0.1875 0.6875 0
0.1875 0.625 0
0.21875 0.625 0
0.1875 0.65625 0
0.21875 0.65625 0
0.21875 0.625 0
0.25 0.625 0
0.21875 0.65625 0
0.25 0.65625 0
0.1875 0.65625 0
0.21875 0.65625 0
0.1875 0.6875 0
0.21875 0.6875 0
0.21875 0.65625 0
0.25 0.65625 0
0.21875 0.6875 0
0.25 0.6875 0
0.125 0.6875 0
0.15625 0.6875 0
0.125 0.71875 0
0.15625 0.71875 0
0.15625 0.6875 0
0.1875 0.6875 0
0.15625 0.71875 0
0.1875 0.71875 0
0.125 0.71875 0
0.15625 0.71875 0
0.125 0.75 0
0.15625 0.75 0
0.15625 0.71875 0
0.1875 0.71875 0
0.15625 0.75 0
0.1875 0.75 0
0.1875 0.6875 0
0.21875 0.6875 0
0.1875 0.71875 0
0.21875 0.71875 0
0.21875 0.6875 0
0.25 0.6875 0
0.21875 0.71875 0
0.25 0.71875 0
0.1875 0.71875 0
0.21875 0.71875 0
0.1875 0.75 0
0.21875 0.75 0
0.21875 0.71875 0
0.25 0.71875 0
0.21875 0.75 0
0.25 0.75 0
0.25 0.5 0
0.28125 0.5 0
0.25 0.53125 0
0.28125 0.53125 0
0.28125 0.5 0
0.3125 0.5 0
0.28125 0.53125 0
0.3125 0.53125 0
0.25 0.53125 0
0.28125 0.53125 0
0.25 0.5625 0
0.28125 0.5625 0
0.28125 0.53125 0
0.3125 0.53125 0
0.28125 0.5625 0
0.3125 0.5625 0
0.3125 0.5 0
0.34375 0.5 0
0.3125 0.53125 0
0.34375 0.53125 0
0.34375 0.5 0
0.375 0.5 0
0.34375 0.53125 0
0.375 0.53125 0
0.3125 0.53125 0
0.34375 0.53125 0
0.3125 0.5625 0
0.34375 0.5625 0
0.34375 0.53125 0
0.375 0.53125 0
0.34375 0.5625 0
0.375 0.5625 0
0.25 0.5625 0
0.28125 0.5625 0
0.25 0.59375 0
0.28125 0.59375 0
0.28125 0.5625 0
0.3125 0.5625 0
0.28125 0.59375 0
0.3125 0.59375 0
0.25 0.59375 0
0.28125 0.59375 0
0.25 0.625 0
0.28125 0.625 0
0.28125 0.59375 0
0.3125 0.59375 0
0.28125 0.625 0
0.3125 0.625 0
0.3125 0.5625 0
0.34375 0.5625 0
0.3125 0.59375 0
0.34375 0.59375 0
0.34375 0.5625 0
0.375 0.5625 0
0.34375 0.59375 0
0.375 0.59375 0
0.3125 0.59375 0
0.34375 0.59375 0
0.3125 0.625 0
0.34375 0.625 0
0.34375 0.59375 0
0.375 0.59375 0
0.34375 0.625 0
0.375 0.625 0
0.375 0.5 0
0.40625 0.5 0
0.375 0.53125 0
0.40625 0.53125 0
0.40625 0.5 0
0.4375 0.5 0
0.40625 0.53125 0
0.4375 0.53125 0
0.375 0.53125 0
0.40625 0.53125 0
0.375 0.5625 0
0.40625 0.5625 0
0.40625 0.53125 0
0.4375 0.53125 0
0.40625 0.5625 0
0.4375 0.5625 0
0.4375 0.5 0
0.46875 0.5 0
0.4375 0.53125 0
0.46875 0.53125 0
0.46875 0.5 0
0.5 0.5 0
0.46875 0.53125 0
0.5 0.53125 0
0.4375 0.53125 0
0.46875 0.53125 0
0.4375 0.5625 0
0.46875 0.5625 0
0.46875 0.53125 0
0.5 0.53125 0
0.46875 0.5625 0
0.5 0.5625 0
0.375 0.5625 0
0.40625 0.5625 0
0.375 0.59375 0
0.40625 0.59375 0
0.40625 0.5625 0
0.4375 0.5625 0
0.40625 0.59375 0
0.4375 0.59375 0
0.375 0.59375 0
0.40625 0.59375 0
0.375 0.625 0
0.40625 0.625 0
0.40625 0.59375 0
0.4375 0.59375 0
0.40625 0.625 0
0.4375 0.625 0
0.4375 0.5625 0
0.46875 0.5625 0
0.4375 0.59375 0
0.46875 0.59375 0
0.46875 0.5625 0
0.5 0.5625 0
0.46875 0.59375 0
0.5 0.59375 0
0.4375 0.59375 0
0.46875 0.59375 0
0.4375 0.625 0
0.46875 0.625 0
0.46875 0.59375 0
0.5 0.59375 0
0.46875 0.625 0
0.5 0.625 0
0.25 0.625 0
0.28125 0.625 0
0.25 0.65625 0
0.28125 0.65625 0
0.28125 0.625 0
0.3125 0.625 0
0.28125 0.65625 0
0.3125 0.65625 0
0.25 0.65625 0
0.28125 0.65625 0
0.25 0.6875 0
0.28125 0.6875 0
0.28125 0.65625 0
0.3125 0.65625 0
0.28125 0.6875 0
0.3125 0.6875 0
0.3125 0.625 0
0.34375 0.625 0
0.3125 0.65625 0
0.34375 0.65625 0
0.34375 0.625 0
0.375 0.625 0
0.34375 0.65625 0
0.375 0.65625 0
0.3125 0.65625 0
0.34375 0.65625 0
0.3125 0.6875 0
0.34375 0.6875 0
0.34375 0.65625 0
0.375 0.65625 0
0.34375 0.6875 0
0.375 0.6875 0
0.25 0.6875 0
0.28125 0.6875 0
0.25 0.71875 0
0.28125 0.71875 0
0.28125 0.6875 0
0.3125 0.6875 0
0.28125 0.71875 0
0.3125 0.71875 0
0.25 0.71875 0
0.28125 0.71875 0
0.25 0.75 0
0.28125 0.75 0
0.28125 0.71875 0
0.3125 0.71875 0
0.28125 0.75 0
0.3125 0.75 0
0.3125 0.6875 0
0.34375 0.6875 0
0.3125 0.71875 0
0.34375 0.71875 0
0.34375 0.6875 0
0.375 0.6875 0
0.34375 0.71875 0
0.375 0.71875 0
0.3125 0.71875 0
0.34375 0.71875 0
0.3125 0.75 0
0.34375 0.75 0
0.34375 0.71875 0
0.375 0.71875 0
0.34375 0.75 0
0.375 0.75 0
0.375 0.625 0
0.40625 0.625 0
0.375 0.65625 0
0.40625 0.65625 0
0.40625 0.625 0
0.4375 0.625 0
0.40625 0.65625 0
0.4375 0.65625 0
0.375 0.65625 0
0.40625 0.65625 0
0.375 0.6875 0
0.40625 0.6875 0
0.40625 0.65625 0
0.4375 0.65625 0
0.40625 0.6875 0
0.4375 0.6875 0
0.4375 0.625 0
0.46875 0.625 0
0.4375 0.65625 0
0.46875 0.65625 0
0.46875 0.625 0
0.5 0.625 0
0.46875 0.65625 0
0.5 0.65625 0
0.4375 0.65625 0
0.46875 0.65625 0
0.4375 0.6875 0
0.46875 0.6875 0
0.46875 0.65625 0
0.5 0.65625 0
0.46875 0.6875 0
0.5 0.6875 0
0.375 0.6875 0
0.40625 0.6875 0
0.375 0.71875 0
0.40625 0.71875 0
0.40625 0.6875 0
0.4375 0.6875 0
0.40625 0.71875 0
0.4375 0.71875 0
0.375 0.71875 0
0.40625 0.71875 0
0.375 0.75 0
0.40625 0.75 0
0.40625 0.71875 0
0.4375 0.71875 0
0.40625 0.75 0
0.4375 0.75 0
0.4375 0.6875 0
0.46875 0.6875 0
0.4375 0.71875 0
0.46875 0.71875 0
0.46875 0.6875 0
0.5 0.6875 0
0.46875 0.71875 0
0.5 0.71875 0
0.4375 0.71875 0
0.46875 0.71875 0
0.4375 0.75 0
0.46875 0.75 0
0.46875 0.71875 0
0.5 0.71875 0
0.46875 0.75 0
0.5 0.75 0
0 0.75 0
0.03125 0.75 0
0 0.78125 0
0.03125 0.78125 0
0.03125 0.75 0
0.0625 0.75 0
0.03125 0.78125 0
0.0625 0.78125 0
0 0.78125 0
0.03125 0.78125 0
0 0.8125 0
0.03125 0.8125 0
0.03125 0.78125 0
0.0625 0.78125 0
0.03125 0.8125 0
0.0625 0.8125 0
0.0625 0.75 0
0.09375 0.75 0
0.0625 0.78125 0
0.09375 0.78125 0
0.09375 0.75 0
0.125 0.75 0
0.09375 0.78125 0
0.125 0.78125 0
0.0625 0.78125 0
0.09375 0.78125 0
0.0625 0.8125 0
0.09375 0.8125 0
0.09375 0.78125 0
0.125 0.78125 0
0.09375 0.8125 0
0.125 0.8125 0
0 0.8125 0
0.03125 0.8125 0
0 0.84375 0
0.03125 0.84375 0
0.03125 0.8125 0
0.0625 0.8125 0
0.03125 0.84375 0
0.0625 0.84375 0
0 0.84375 0
0.03125 0.84375 0
0 0.875 0
0.03125 0.875 0
0.03125 0.84375 0
0.0625 0.84375 0
0.03125 0.875 0
0.0625 0.875 0
0.0625 0.8125 0
0.09375 0.8125 0
0.0625 0.84375 0
0.09375 0.84375 0
0.09375 0.8125 0
0.125 0.8125 0
0.09375 0.84375 0
0.125 0.84375 0
0.0625 0.84375 0
0.09375 0.84375 0
0.0625 0.875 0
0.09375 0.875 0
0.09375 0.84375 0
0.125 0.84375 0
0.09375 0.875 0
0.125 0.875 0
0.125 0.75 0
0.15625 0.75 0
0.125 0.78125 0
0.15625 0.78125 0
0.15625 0.75 0
0.1875 0.75 0
0.15625 0.78125 0
0.1875 0.78125 0
0.125 0.78125 0
0.15625 0.78125 0
0.125 0.8125 0
0.15625 0.8125 0
0.15625 0.78125 0
0.1875 0.78125 0
0.15625 0.8125 0
0.1875 0.8125 0
0.1875 0.75 0
0.21875 0.75 0
0.1875 0.78125 0
0.21875 0.78125 0
0.21875 0.75 0
0.25 0.75 0
0.21875 0.78125 0
0.25 0.78125 0
0.1875 0.78125 0
0.21875 0.78125 0
0.1875 0.8125 0
0.21875 0.8125 0
0.21875 0.78125 0
0.25 0.78125 0
0.21875 0.8125 0
0.25 0.8125 0
0.125 0.8125 0
0.15625 0.8125 0
0.125 0.84375 0
0.15625 0.84375 0
0.15625 0.8125 0
[...]
POINT_DATA 4096
SCALARS State_InstatPDEProblemContainer_0 double 1
LOOKUP_TABLE default
-0.00100308 -0.00100295 -0.0010732 -0.00107314 -0.00100295 -0.00100281 -0.00107314 -0.00107324 -0.0010732 -0.00107314 -0.00114301 -0.00114303 -0.00107314 -0.00107324 -0.00114303 -0.00114335 -0.00100281 -0.00100267 -0.00107324 -0.00107351 -0.00100267 -0.00100253 -0.00107351 -0.00107395 -0.00107324 -0.00107351 -0.00114335 -0.00114399 -0.00107351 -0.00107395 -0.00114399 -0.00114499 -0.00114301 -0.00114303 -0.00121223 -0.00121231 -0.00114303 -0.00114335 -0.00121231 -0.00121283 -0.00121223 -0.00121231 -0.0012806 -0.00128074 -0.00121231 -0.00121283 -0.00128074 -0.00128142 -0.00114335 -0.00114399 -0.00121283 -0.0012138 -0.00114399 -0.00114499 -0.0012138 -0.00121527 -0.00121283 -0.0012138 -0.00128142 -0.00128265 -0.0012138 -0.00121527 -0.00128265 -0.00128447 -0.00100253 -0.00100238 -0.00107395 -0.0010746 -0.00100238 -0.00100222 -0.0010746 -0.00107549 -0.00107395 -0.0010746 -0.00114499 -0.00114637 -0.0010746 -0.00107549 -0.00114637 -0.00114822 -0.00100222 -0.00100205 -0.00107549 -0.00107667 -0.00100205 -0.00100187 -0.00107667 -0.00107821 -0.00107549 -0.00107667 -0.00114822 -0.00115061 -0.00107667 -0.00107821 -0.00115061 -0.0011537 -0.00114499 -0.00114637 -0.00121527 -0.00121727 -0.00114637 -0.00114822 -0.00121727 -0.00121991 -0.00121527 -0.00121727 -0.00128447 -0.00128695 -0.00121727 -0.00121991 -0.00128695 -0.00129017 -0.00114822 -0.00115061 -0.00121991 -0.00122329 -0.00115061 -0.0011537 -0.00122329 -0.00122756 -0.00121991 -0.00122329 -0.00129017 -0.00129423 -0.00122329 -0.00122756 -0.00129423 -0.00129928 -0.0012806 -0.00128074 -0.00134791 -0.0013481 -0.00128074 -0.00128142 -0.0013481 -0.00134888 -0.00134791 -0.0013481 -0.00141399 -0.00141421 -0.0013481 -0.00134888 -0.00141421 -0.00141506 -0.00128142 -0.00128265 -0.00134888 -0.00135029 -0.00128265 -0.00128447 -0.00135029 -0.00135236 -0.00134888 -0.00135029 -0.00141506 -0.00141657 -0.00135029 -0.00135236 -0.00141657 -0.00141876 -0.00141399 -0.00141421 -0.00147872 -0.00147895 -0.00141421 -0.00141506 -0.00147895 -0.00147982 -0.00147872 -0.00147895 -0.00154202 -0.00154225 -0.00147895 -0.00147982 -0.00154225 -0.0015431 -0.00141506 -0.00141657 -0.00147982 -0.00148135 -0.00141657 -0.00141876 -0.00148135 -0.00148356 -0.00147982 -0.00148135 -0.0015431 -0.00154459 -0.00148135 -0.00148356 -0.00154459 -0.00154673 -0.00128447 -0.00128695 -0.00135236 -0.00135514 -0.00128695 -0.00129017 -0.00135514 -0.00135871 -0.00135236 -0.00135514 -0.00141876 -0.00142168 -0.00135514 -0.00135871 -0.00142168 -0.00142538 -0.00129017 -0.00129423 -0.00135871 -0.00136314 -0.00129423 -0.00129928 -0.00136314 -0.00136856 -0.00135871 -0.00136314 -0.00142538 -0.00142991 -0.00136314 -0.00136856 -0.00142991 -0.00143534 -0.00141876 -0.00142168 -0.00148356 -0.00148648 -0.00142168 -0.00142538 -0.00148648 -0.00149013 -0.00148356 -0.00148648 -0.00154673 -0.00154953 -0.00148648 -0.00149013 -0.00154953 -0.00155298 -0.00142538 -0.00142991 -0.00149013 -0.00149453 -0.00142991 -0.00143534 -0.00149453 -0.00149972 -0.00149013 -0.00149453 -0.00155298 -0.00155709 -0.00149453 -0.00149972 -0.00155709 -0.00156185 -0.00100187 -0.00100167 -0.00107821 -0.00108024 -0.00100167 -0.00100145 -0.00108024 -0.00108293 -0.00107821 -0.00108024 -0.0011537 -0.00115766 -0.00108024 -0.00108293 -0.00115766 -0.00116281 -0.00100145 -0.00100119 -0.00108293 -0.00108657 -0.00100119 -0.00100088 -0.00108657 -0.00109168 -0.00108293 -0.00108657 -0.00116281 -0.00116958 -0.00108657 -0.00109168 -0.00116958 -0.00117868 -0.0011537 -0.00115766 -0.00122756 -0.00123296 -0.00115766 -0.00116281 -0.00123296 -0.00123978 -0.00122756 -0.00123296 -0.00129928 -0.00130552 -0.00123296 -0.00123978 -0.00130552 -0.00131318 -0.00116281 -0.00116958 -0.00123978 -0.00124845 -0.00116958 -0.00117868 -0.00124845 -0.00125951 -0.00123978 -0.00124845 -0.00131318 -0.00132252 -0.00124845 -0.00125951 -0.00132252 -0.00133382 -0.00100088 -0.00100049 -0.00109168 -0.00109919 -0.00100049 -0.000999948 -0.00109919 -0.00111114 -0.00109168 -0.00109919 -0.00117868 -0.00119124 -0.00109919 -0.00111114 -0.00119124 -0.00120897 -0.000999948 -0.000998953 -0.00111114 -0.00113217 -0.000998953 -0.000997602 -0.00113217 -0.00117795 -0.00111114 -0.00113217 -0.00120897 -0.00123441 -0.00113217 -0.00117795 -0.00123441 -0.00126122 -0.00117868 -0.00119124 -0.00125951 -0.00127361 -0.00119124 -0.00120897 -0.00127361 -0.00129126 -0.00125951 -0.00127361 -0.00133382 -0.00134719 -0.00127361 -0.00129126 -0.00134719 -0.00136223 -0.00120897 -0.00123441 -0.00129126 -0.00131115 -0.00123441 -0.00126122 -0.00131115 -0.00133156 -0.00129126 -0.00131115 -0.00136223 -0.00137801 -0.00131115 -0.00133156 -0.00137801 -0.00139317 -0.00129928 -0.00130552 -0.00136856 -0.00137509 -0.00130552 -0.00131318 -0.00137509 -0.00138287 -0.00136856 -0.00137509 -0.00143534 -0.00144174 -0.00137509 -0.00138287 -0.00144174 -0.00144914 -0.00131318 -0.00132252 -0.00138287 -0.00139201 -0.00132252 -0.00133382 -0.00139201 -0.00140251 -0.00138287 -0.00139201 -0.00144914 -0.00145752 -0.00139201 -0.00140251 -0.00145752 -0.00146675 -0.00143534 -0.00144174 -0.00149972 -0.00150568 -0.00144174 -0.00144914 -0.00150568 -0.0015124 -0.00149972 -0.00150568 -0.00156185 -0.00156721 -0.00150568 -0.0015124 -0.00156721 -0.00157309 -0.00144914 -0.00145752 -0.0015124 -0.00151976 -0.00145752 -0.00146675 -0.00151976 -0.00152761 -0.0015124 -0.00151976 -0.00157309 -0.00157938 -0.00151976 -0.00152761 -0.00157938 -0.00158587 -0.00133382 -0.00134719 -0.00140251 -0.00141418 -0.00134719 -0.00136223 -0.00141418 -0.00142656 -0.00140251 -0.00141418 -0.00146675 -0.00147656 -0.00141418 -0.00142656 -0.00147656 -0.00148652 -0.00136223 -0.00137801 -0.00142656 -0.00143887 -0.00137801 -0.00139317 -0.00143887 -0.00145046 -0.00142656 -0.00143887 -0.00148652 -0.00149612 -0.00143887 -0.00145046 -0.00149612 -0.00150497 -0.00146675 -0.00147656 -0.00152761 -0.00153565 -0.00147656 -0.00148652 -0.00153565 -0.00154355 -0.00152761 -0.00153565 -0.00158587 -0.00159234 -0.00153565 -0.00154355 -0.00159234 -0.00159851 -0.00148652 -0.00149612 -0.00154355 -0.00155098 -0.00149612 -0.00150497 -0.00155098 -0.0015577 -0.00154355 -0.00155098 -0.00159851 -0.00160418 -0.00155098 -0.0015577 -0.00160418 -0.0016092 -0.00154202 -0.00154225 -0.00160386 -0.00160407 -0.00154225 -0.0015431 -0.00160407 -0.00160488 -0.00160386 -0.00160407 -0.00166424 -0.00166444 -0.00160407 -0.00160488 -0.00166444 -0.00166517 -0.0015431 -0.00154459 -0.00160488 -0.00160628 -0.00154459 -0.00154673 -0.00160628 -0.00160828 -0.00160488 -0.00160628 -0.00166517 -0.00166644 -0.00160628 -0.00160828 -0.00166644 -0.00166824 -0.00166424 -0.00166444 -0.00172321 -0.00172338 -0.00166444 -0.00166517 -0.00172338 -0.00172402 -0.00172321 -0.00172338 -0.00178084 -0.00178097 -0.00172338 -0.00172402 -0.00178097 -0.0017815 -0.00166517 -0.00166644 -0.00172402 -0.00172513 -0.00166644 -0.00166824 -0.00172513 -0.0017267 -0.00172402 -0.00172513 -0.0017815 -0.00178243 -0.00172513 -0.0017267 -0.00178243 -0.00178373 -0.00154673 -0.00154953 -0.00160828 -0.00161086 -0.00154953 -0.00155298 -0.00161086 -0.00161402 -0.00160828 -0.00161086 -0.00166824 -0.00167055 -0.00161086 -0.00161402 -0.00167055 -0.00167335 -0.00155298 -0.00155709 -0.00161402 -0.00161773 -0.00155709 -0.00156185 -0.00161773 -0.00162196 -0.00161402 -0.00161773 -0.00167335 -0.0016766 -0.00161773 -0.00162196 -0.0016766 -0.00168024 -0.00166824 -0.00167055 -0.0017267 -0.00172869 -0.00167055 -0.00167335 -0.00172869 -0.00173109 -0.0017267 -0.00172869 -0.00178373 -0.00178539 -0.00172869 -0.00173109 -0.00178539 -0.00178736 -0.00167335 -0.0016766 -0.00173109 -0.00173384 -0.0016766 -0.00168024 -0.00173384 -0.00173688 -0.00173109 -0.00173384 -0.00178736 -0.0017896 -0.00173384 -0.00173688 -0.0017896 -0.00179205 -0.00178084 -0.00178097 -0.0018372 -0.0018373 -0.00178097 -0.0017815 -0.0018373 -0.00183771 -0.0018372 -0.0018373 -0.00189243 -0.00189249 -0.0018373 -0.00183771 -0.00189249 -0.00189277 -0.0017815 -0.00178243 -0.00183771 -0.00183844 -0.00178243 -0.00178373 -0.00183844 -0.00183946 -0.00183771 -0.00183844 -0.00189277 -0.00189327 -0.00183844 -0.00183946 -0.00189327 -0.00189399 -0.00189243 -0.00189249 -0.00194666 -0.00194666 -0.00189249 -0.00189277 -0.00194666 -0.00194681 -0.00194666 -0.00194666 -0.002 -0.002 -0.00194666 -0.00194681 -0.002 -0.002 -0.00189277 -0.00189327 -0.00194681 -0.00194707 -0.00189327 -0.00189399 -0.00194707 -0.00194745 -0.00194681 -0.00194707 -0.002 -0.002 -0.00194707 -0.00194745 -0.002 -0.002 -0.00178373 -0.00178539 -0.00183946 -0.00184075 -0.00178539 -0.00178736 -0.00184075 -0.00184228 -0.00183946 -0.00184075 -0.00189399 -0.00189489 -0.00184075 -0.00184228 -0.00189489 -0.00189595 -0.00178736 -0.0017896 -0.00184228 -0.001844 -0.0017896 -0.00179205 -0.001844 -0.00184586 -0.00184228 -0.001844 -0.00189595 -0.00189714 -0.001844 -0.00184586 -0.00189714 -0.00189841 -0.00189399 -0.00189489 -0.00194745 -0.00194793 -0.00189489 -0.00189595 -0.00194793 -0.00194849 -0.00194745 -0.00194793 -0.002 -0.002 -0.00194793 -0.00194849 -0.002 -0.002 -0.00189595 -0.00189714 -0.00194849 -0.00194912 -0.00189714 -0.00189841 -0.00194912 -0.00194978 -0.00194849 -0.00194912 -0.002 -0.002 -0.00194912 -0.00194978 -0.002 -0.002 -0.00156185 -0.00156721 -0.00162196 -0.00162662 -0.00156721 -0.00157309 -0.00162662 -0.00163163 -0.00162196 -0.00162662 -0.00168024 -0.00168419 -0.00162662 -0.00163163 -0.00168419 -0.00168834 -0.00157309 -0.00157938 -0.00163163 -0.00163685 -0.00157938 -0.00158587 -0.00163685 -0.00164211 -0.00163163 -0.00163685 -0.00168834 -0.00169258 -0.00163685 -0.00164211 -0.00169258 -0.00169674 -0.00168024 -0.00168419 -0.00173688 -0.00174013 -0.00168419 -0.00168834 -0.00174013 -0.00174348 -0.00173688 -0.00174013 -0.00179205 -0.00179462 -0.00174013 -0.00174348 -0.00179462 -0.00179723 -0.00168834 -0.00169258 -0.00174348 -0.00174682 -0.00169258 -0.00169674 -0.00174682 -0.00175003 -0.00174348 -0.00174682 -0.00179723 -0.00179977 -0.00174682 -0.00175003 -0.00179977 -0.00180215 -0.00158587 -0.00159234 -0.00164211 -0.00164721 -0.00159234 -0.00159851 -0.00164721 -0.00165195 -0.00164211 -0.00164721 -0.00169674 -0.00170067 -0.00164721 -0.00165195 -0.00170067 -0.00170422 -0.00159851 -0.00160418 -0.00165195 -0.00165619 -0.00160418 -0.0016092 -0.00165619 -0.00165984 -0.00165195 -0.00165619 -0.00170422 -0.00170729 -0.00165619 -0.00165984 -0.00170729 -0.00170984 -0.00169674 -0.00170067 -0.00175003 -0.00175297 -0.00170067 -0.00170422 -0.00175297 -0.00175554 -0.00175003 -0.00175297 -0.00180215 -0.00180427 -0.00175297 -0.00175554 -0.00180427 -0.00180604 -0.00170422 -0.00170729 -0.00175554 -0.00175767 -0.00170729 -0.00170984 -0.00175767 -0.00175934 -0.00175554 -0.00175767 -0.00180604 -0.00180743 -0.00175767 -0.00175934 -0.00180743 -0.00180841 -0.00179205 -0.00179462 -0.00184586 -0.00184779 -0.00179462 -0.00179723 -0.00184779 -0.00184971 -0.00184586 -0.00184779 -0.00189841 -0.00189972 -0.00184779 -0.00184971 -0.00189972 -0.001901 -0.00179723 -0.00179977 -0.00184971 -0.00185155 -0.00179977 -0.00180215 -0.00185155 -0.00185322 -0.00184971 -0.00185155 -0.001901 -0.0019022 -0.00185155 -0.00185322 -0.0019022 -0.00190325 -0.00189841 -0.00189972 -0.00194978 -0.00195045 -0.00189972 -0.001901 -0.00195045 -0.00195111 -0.00194978 -0.00195045 -0.002 -0.002 -0.00195045 -0.00195111 -0.002 -0.002 -0.001901 -0.0019022 -0.00195111 -0.0019517 -0.0019022 -0.00190325 -0.0019517 -0.00195222 -0.00195111 -0.0019517 -0.002 -0.002 -0.0019517 -0.00195222 -0.002 -0.002 -0.00180215 -0.00180427 -0.00185322 -0.00185465 -0.00180427 -0.00180604 -0.00185465 -0.00185579 -0.00185322 -0.00185465 -0.00190325 -0.00190412 -0.00185465 -0.00185579 -0.00190412 -0.00190476 -0.00180604 -0.00180743 -0.00185579 -0.00185659 -0.00180743 -0.00180841 -0.00185659 -0.00185707 -0.00185579 -0.00185659 -0.00190476 -0.00190515 -0.00185659 -0.00185707 -0.00190515 -0.00190529 -0.00190325 -0.00190412 -0.00195222 -0.00195262 -0.00190412 -0.00190476 -0.00195262 -0.00195288 -0.00195222 -0.00195262 -0.002 -0.002 -0.00195262 -0.00195288 -0.002 -0.002 -0.00190476 -0.00190515 -0.00195288 -0.001953 -0.00190515 -0.00190529 -0.001953 -0.00195298 -0.00195288 -0.001953 -0.002 -0.002 -0.001953 -0.00195298 -0.002 -0.002 -0.000997602 -0.00114994 -0.00117795 -0.00121479 -0.00114994 -0.00124038 -0.00121479 -0.00126552 -0.00117795 -0.00121479 -0.00126122 -0.00128912 -0.00121479 -0.00126552 -0.00128912 -0.00131598 -0.00124038 -0.00130183 -0.00126552 -0.00131333 -0.00130183 -0.00134834 -0.00131333 -0.00135419 -0.00126552 -0.00131333 -0.00131598 -0.00134673 -0.00131333 -0.00135419 -0.00134673 -0.00137732 -0.00126122 -0.00128912 -0.00133156 -0.00135043 -0.00128912 -0.00131598 -0.00135043 -0.00136942 -0.00133156 -0.00135043 -0.00139317 -0.00140732 -0.00135043 -0.00136942 -0.00140732 -0.00142096 -0.00131598 -0.00134673 -0.00136942 -0.00138957 -0.00134673 -0.00137732 -0.00138957 -0.00141112 -0.00136942 -0.00138957 -0.00142096 -0.00143523 -0.00138957 -0.00141112 -0.00143523 -0.00145041 -0.00134834 -0.00138539 -0.00135419 -0.00138856 -0.00138539 -0.0014157 -0.00138856 -0.0014175 -0.00135419 -0.00138856 -0.00137732 -0.00140549 -0.00138856 -0.0014175 -0.00140549 -0.00143055 -0.0014157 -0.00144082 -0.0014175 -0.00144189 -0.00144082 -0.00146172 -0.00144189 -0.00146243 -0.0014175 -0.00144189 -0.00143055 -0.00145243 -0.00144189 -0.00146243 -0.00145243 -0.0014713 -0.00137732 -0.00140549 -0.00141112 -0.00143254 -0.00140549 -0.00143055 -0.00143254 -0.00145274 -0.00141112 -0.00143254 -0.00145041 -0.00146615 -0.00143254 -0.00145274 -0.00146615 -0.00148169 -0.00143055 -0.00145243 -0.00145274 -0.00147114 -0.00145243 -0.0014713 -0.00147114 -0.0014875 -0.00145274 -0.00147114 -0.00148169 -0.00149641 -0.00147114 -0.0014875 -0.00149641 -0.00150992 -0.00139317 -0.00140732 -0.00145046 -0.0014611 -0.00140732 -0.00142096 -0.0014611 -0.00147124 -0.00145046 -0.0014611 -0.00150497 -0.00151302 -0.0014611 -0.00147124 -0.00151302 -0.00152055 -0.00142096 -0.00143523 -0.00147124 -0.00148152 -0.00143523 -0.00145041 -0.00148152 -0.00149239 -0.00147124 -0.00148152 -0.00152055 -0.00152802 -0.00148152 -0.00149239 -0.00152802 -0.00153578 -0.00150497 -0.00151302 -0.0015577 -0.00156372 -0.00151302 -0.00152055 -0.00156372 -0.00156924 -0.0015577 -0.00156372 -0.0016092 -0.0016136 -0.00156372 -0.00156924 -0.0016136 -0.00161754 -0.00152055 -0.00152802 -0.00156924 -0.00157459 -0.00152802 -0.00153578 -0.00157459 -0.00158005 -0.00156924 -0.00157459 -0.00161754 -0.00162125 -0.00157459 -0.00158005 -0.00162125 -0.00162497 -0.00145041 -0.00146615 -0.00149239 -0.00150379 -0.00146615 -0.00148169 -0.00150379 -0.00151539 -0.00149239 -0.00150379 -0.00153578 -0.00154395 -0.00150379 -0.00151539 -0.00154395 -0.00155239 -0.00148169 -0.00149641 -0.00151539 -0.00152673 -0.00149641 -0.00150992 -0.00152673 -0.00153745 -0.00151539 -0.00152673 -0.00155239 -0.00156085 -0.00152673 -0.00153745 -0.00156085 -0.00156905 -0.00153578 -0.00154395 -0.00158005 -0.00158578 -0.00154395 -0.00155239 -0.00158578 -0.00159176 -0.00158005 -0.00158578 -0.00162497 -0.00162883 -0.00158578 -0.00159176 -0.00162883 -0.0016329 -0.00155239 -0.00156085 -0.00159176 -0.00159786 -0.00156085 -0.00156905 -0.00159786 -0.0016039 -0.00159176 -0.00159786 -0.0016329 -0.00163712 -0.00159786 -0.0016039 -0.00163712 -0.00164137 -0.00146172 -0.00147908 -0.00146243 -0.00147965 -0.00147908 -0.00149339 -0.00147965 -0.00149393 -0.00146243 -0.00147965 -0.0014713 -0.00148738 -0.00147965 -0.00149393 -0.00148738 -0.00150089 -0.00149339 -0.001505 -0.00149393 -0.00150558 -0.001505 -0.00151418 -0.00150558 -0.00151483 -0.00149393 -0.00150558 -0.00150089 -0.00151201 -0.00150558 -0.00151483 -0.00151201 -0.0015209 -0.0014713 -0.00148738 -0.0014875 -0.00150175 -0.00148738 -0.00150089 -0.00150175 -0.00151392 -0.0014875 -0.00150175 -0.00150992 -0.00152199 -0.00150175 -0.00151392 -0.00152199 -0.00153248 -0.00150089 -0.00151201 -0.00151392 -0.00152406 -0.00151201 -0.0015209 -0.00152406 -0.00153225 -0.00151392 -0.00152406 -0.00153248 -0.00154136 -0.00152406 -0.00153225 -0.00154136 -0.0015486 -0.00151418 -0.00152113 -0.00151483 -0.00152186 -0.00152113 -0.001526 -0.00152186 -0.00152679 -0.00151483 -0.00152186 -0.0015209 -0.00152769 -0.00152186 -0.00152679 -0.00152769 -0.00153248 -0.001526 -0.00152889 -0.00152679 -0.00152972 -0.00152889 -0.00152984 -0.00152972 -0.00153069 -0.00152679 -0.00152972 -0.00153248 -0.00153532 -0.00152972 -0.00153069 -0.00153532 -0.00153626 -0.0015209 -0.00152769 -0.00153225 -0.00153855 -0.00152769 -0.00153248 -0.00153855 -0.001543 -0.00153225 -0.00153855 -0.0015486 -0.00155422 -0.00153855 -0.001543 -0.00155422 -0.00155821 -0.00153248 -0.00153532 -0.001543 -0.00154566 -0.00153532 -0.00153626 -0.00154566 -0.00154654 -0.001543 -0.00154566 -0.00155821 -0.0015606 -0.00154566 -0.00154654 -0.0015606 -0.0015614 -0.00150992 -0.00152199 -0.00153745 -0.00154725 -0.00152199 -0.00153248 -0.00154725 -0.00155594 -0.00153745 -0.00154725 -0.00156905 -0.00157671 -0.00154725 -0.00155594 -0.00157671 -0.00158364 -0.00153248 -0.00154136 -0.00155594 -0.00156341 -0.00154136 -0.0015486 -0.00156341 -0.00156958 -0.00155594 -0.00156341 -0.00158364 -0.00158969 -0.00156341 -0.00156958 -0.00158969 -0.00159475 -0.00156905 -0.00157671 -0.0016039 -0.00160966 -0.00157671 -0.00158364 -0.00160966 -0.00161498 -0.0016039 -0.00160966 -0.00164137 -0.00164552 -0.00160966 -0.00161498 -0.00164552 -0.00164942 -0.00158364 -0.00158969 -0.00161498 -0.00161969 -0.00158969 -0.00159475 -0.00161969 -0.00162368 -0.00161498 -0.00161969 -0.00164942 -0.00165293 -0.00161969 -0.00162368 -0.00165293 -0.00165595 -0.0015486 -0.00155422 -0.00156958 -0.0015744 -0.00155422 -0.00155821 -0.0015744 -0.00157786 -0.00156958 -0.0015744 -0.00159475 -0.00159874 -0.0015744 -0.00157786 -0.00159874 -0.00160162 -0.00155821 -0.0015606 -0.00157786 -0.00157993 -0.0015606 -0.0015614 -0.00157993 -0.00158062 -0.00157786 -0.00157993 -0.00160162 -0.00160336 -0.00157993 -0.00158062 -0.00160336 -0.00160393 -0.00159475 -0.00159874 -0.00162368 -0.00162686 -0.00159874 -0.00160162 -0.00162686 -0.00162917 -0.00162368 -0.00162686 -0.00165595 -0.00165838 -0.00162686 -0.00162917 -0.00165838 -0.00166015 -0.00160162 -0.00160336 -0.00162917 -0.00163057 -0.00160336 -0.00160393 -0.00163057 -0.00163102 -0.00162917 -0.00163057 -0.00166015 -0.00166123 -0.00163057 -0.00163102 -0.00166123 -0.00166158 -0.0016092 -0.0016136 -0.00165984 -0.00166294 -0.0016136 -0.00161754 -0.00166294 -0.00166562 -0.00165984 -0.00166294 -0.00170984 -0.0017119 -0.00166294 -0.00166562 -0.0017119 -0.00171357 -0.00161754 -0.00162125 -0.00166562 -0.00166805 -0.00162125 -0.00162497 -0.00166805 -0.00167041 -0.00166562 -0.00166805 -0.00171357 -0.001715 -0.00166805 -0.00167041 -0.001715 -0.00171633 -0.00170984 -0.0017119 -0.00175934 -0.00176058 -0.0017119 -0.00171357 -0.00176058 -0.00176147 -0.00175934 -0.00176058 -0.00180841 -0.00180902 -0.00176058 -0.00176147 -0.00180902 -0.00180934 -0.00171357 -0.001715 -0.00176147 -0.00176213 -0.001715 -0.00171633 -0.00176213 -0.00176268 -0.00176147 -0.00176213 -0.00180934 -0.00180944 -0.00176213 -0.00176268 -0.00180944 -0.00180944 -0.00162497 -0.00162883 -0.00167041 -0.00167285 -0.00162883 -0.0016329 -0.00167285 -0.00167544 -0.00167041 -0.00167285 -0.00171633 -0.00171769 -0.00167285 -0.00167544 -0.00171769 -0.00171915 -0.0016329 -0.00163712 -0.00167544 -0.00167818 -0.00163712 -0.00164137 -0.00167818 -0.001681 -0.00167544 -0.00167818 -0.00171915 -0.00172074 -0.00167818 -0.001681 -0.00172074 -0.00172244 -0.00171633 -0.00171769 -0.00176268 -0.00176323 -0.00171769 -0.00171915 -0.00176323 -0.00176386 -0.00176268 -0.00176323 -0.00180944 -0.00180943 -0.00176323 -0.00176386 -0.00180943 -0.00180947 -0.00171915 -0.00172074 -0.00176386 -0.0017646 -0.00172074 -0.00172244 -0.0017646 -0.00176546 -0.00176386 -0.0017646 -0.00180947 -0.00180961 -0.0017646 -0.00176546 -0.00180961 -0.00180987 -0.00180841 -0.00180902 -0.00185707 -0.00185724 -0.00180902 -0.00180934 -0.00185724 -0.00185717 -0.00185707 -0.00185724 -0.00190529 -0.0019052 -0.00185724 -0.00185717 -0.0019052 -0.00190493 -0.00180934 -0.00180944 -0.00185717 -0.00185692 -0.00180944 -0.00180944 -0.0018569