# vtk DataFile Version 3.0
#This file was generated by the deal.II library on 2018/7/10 at 10:46:58
ASCII
DATASET UNSTRUCTURED_GRID

POINTS 4096 double
0 0.5 0
0.03125 0.5 0
0 0.53125 0
0.03125 0.53125 0
0.03125 0.5 0
0.0625 0.5 0
0.03125 0.53125 0
0.0625 0.53125 0
0 0.53125 0
0.03125 0.53125 0
0 0.5625 0
0.03125 0.5625 0
0.03125 0.53125 0
0.0625 0.53125 0
0.03125 0.5625 0
0.0625 0.5625 0
0.0625 0.5 0
0.09375 0.5 0
0.0625 0.53125 0
0.09375 0.53125 0
0.09375 0.5 0
0.125 0.5 0
0.09375 0.53125 0
0.125 0.53125 0
0.0625 0.53125 0
0.09375 0.53125 0
0.0625 0.5625 0
0.09375 0.5625 0
0.09375 0.53125 0
0.125 0.53125 0
0.09375 0.5625 0
0.125 0.5625 0
0 0.5625 0
0.03125 0.5625 0
0 0.59375 0
0.03125 0.59375 0
0.03125 0.5625 0
0.0625 0.5625 0
0.03125 0.59375 0
0.0625 0.59375 0
0 0.59375 0
0.03125 0.59375 0
0 0.625 0
0.03125 0.625 0
0.03125 0.59375 0
0.0625 0.59375 0
0.03125 0.625 0
0.0625 0.625 0
0.0625 0.5625 0
0.09375 0.5625 0
0.0625 0.59375 0
0.09375 0.59375 0
0.09375 0.5625 0
0.125 0.5625 0
0.09375 0.59375 0
0.125 0.59375 0
0.0625 0.59375 0
0.09375 0.59375 0
0.0625 0.625 0
0.09375 0.625 0
0.09375 0.59375 0
0.125 0.59375 0
0.09375 0.625 0
0.125 0.625 0
0.125 0.5 0
0.15625 0.5 0
0.125 0.53125 0
0.15625 0.53125 0
0.15625 0.5 0
0.1875 0.5 0
0.15625 0.53125 0
0.1875 0.53125 0
0.125 0.53125 0
0.15625 0.53125 0
0.125 0.5625 0
0.15625 0.5625 0
0.15625 0.53125 0
0.1875 0.53125 0
0.15625 0.5625 0
0.1875 0.5625 0
0.1875 0.5 0
0.21875 0.5 0
0.1875 0.53125 0
0.21875 0.53125 0
0.21875 0.5 0
0.25 0.5 0
0.21875 0.53125 0
0.25 0.53125 0
0.1875 0.53125 0
0.21875 0.53125 0
0.1875 0.5625 0
0.21875 0.5625 0
0.21875 0.53125 0
0.25 0.53125 0
0.21875 0.5625 0
0.25 0.5625 0
0.125 0.5625 0
0.15625 0.5625 0
0.125 0.59375 0
0.15625 0.59375 0
0.15625 0.5625 0
0.1875 0.5625 0
0.15625 0.59375 0
0.1875 0.59375 0
0.125 0.59375 0
0.15625 0.59375 0
0.125 0.625 0
0.15625 0.625 0
0.15625 0.59375 0
0.1875 0.59375 0
0.15625 0.625 0
0.1875 0.625 0
0.1875 0.5625 0
0.21875 0.5625 0
0.1875 0.59375 0
0.21875 0.59375 0
0.21875 0.5625 0
0.25 0.5625 0
0.21875 0.59375 0
0.25 0.59375 0
0.1875 0.59375 0
0.21875 0.59375 0
0.1875 0.625 0
0.21875 0.625 0
0.21875 0.59375 0
0.25 0.59375 0
0.21875 0.625 0
0.25 0.625 0
0 0.625 0
0.03125 0.625 0
0 0.65625 0
0.03125 0.65625 0
0.03125 0.625 0
0.0625 0.625 0
0.03125 0.65625 0
0.0625 0.65625 0
0 0.65625 0
0.03125 0.65625 0
0 0.6875 0
0.03125 0.6875 0
0.03125 0.65625 0
0.0625 0.65625 0
0.03125 0.6875 0
0.0625 0.6875 0
0.0625 0.625 0
0.09375 0.625 0
0.0625 0.65625 0
0.09375 0.65625 0
0.09375 0.625 0
0.125 0.625 0
0.09375 0.65625 0
0.125 0.65625 0
0.0625 0.65625 0
0.09375 0.65625 0
0.0625 0.6875 0
0.09375 0.6875 0
0.09375 0.65625 0
0.125 0.65625 0
0.09375 0.6875 0
0.125 0.6875 0
0 0.6875 0
0.03125 0.6875 0
0 0.71875 0
0.03125 0.71875 0
0.03125 0.6875 0
0.0625 0.6875 0
0.03125 0.71875 0
0.0625 0.71875 0
0 0.71875 0
0.03125 0.71875 0
0 0.75 0
0.03125 0.75 0
0.03125 0.71875 0
0.0625 0.71875 0
0.03125 0.75 0
0.0625 0.75 0
0.0625 0.6875 0
0.09375 0.6875 0
0.0625 0.71875 0
0.09375 0.71875 0
0.09375 0.6875 0
0.125 0.6875 0
0.09375 0.71875 0
0.125 0.71875 0
0.0625 0.71875 0
0.09375 0.71875 0
0.0625 0.75 0
0.09375 0.75 0
0.09375 0.71875 0
0.125 0.71875 0
0.09375 0.75 0
0.125 0.75 0
0.125 0.625 0
0.15625 0.625 0
0.125 0.65625 0
0.15625 0.65625 0
0.15625 0.625 0
0.1875 0.625 0
0.15625 0.65625 0
0.1875 0.65625 0
0.125 0.65625 0
0.15625 0.65625 0
0.125 0.6875 0
0.15625 0.6875 0
0.15625 0.65625 0
0.1875 0.65625 0
0.15625 0.6875 0
0.1875 0.6875 0
0.1875 0.625 0
0.21875 0.625 0
0.1875 0.65625 0
0.21875 0.65625 0
0.21875 0.625 0
0.25 0.625 0
0.21875 0.65625 0
0.25 0.65625 0
0.1875 0.65625 0
0.21875 0.65625 0
0.1875 0.6875 0
0.21875 0.6875 0
0.21875 0.65625 0
0.25 0.65625 0
0.21875 0.6875 0
0.25 0.6875 0
0.125 0.6875 0
0.15625 0.6875 0
0.125 0.71875 0
0.15625 0.71875 0
0.15625 0.6875 0
0.1875 0.6875 0
0.15625 0.71875 0
0.1875 0.71875 0
0.125 0.71875 0
0.15625 0.71875 0
0.125 0.75 0
0.15625 0.75 0
0.15625 0.71875 0
0.1875 0.71875 0
0.15625 0.75 0
0.1875 0.75 0
0.1875 0.6875 0
0.21875 0.6875 0
0.1875 0.71875 0
0.21875 0.71875 0
0.21875 0.6875 0
0.25 0.6875 0
0.21875 0.71875 0
0.25 0.71875 0
0.1875 0.71875 0
0.21875 0.71875 0
0.1875 0.75 0
0.21875 0.75 0
0.21875 0.71875 0
0.25 0.71875 0
0.21875 0.75 0
0.25 0.75 0
0.25 0.5 0
0.28125 0.5 0
0.25 0.53125 0
0.28125 0.53125 0
0.28125 0.5 0
0.3125 0.5 0
0.28125 0.53125 0
0.3125 0.53125 0
0.25 0.53125 0
0.28125 0.53125 0
0.25 0.5625 0
0.28125 0.5625 0
0.28125 0.53125 0
0.3125 0.53125 0
0.28125 0.5625 0
0.3125 0.5625 0
0.3125 0.5 0
0.34375 0.5 0
0.3125 0.53125 0
0.34375 0.53125 0
0.34375 0.5 0
0.375 0.5 0
0.34375 0.53125 0
0.375 0.53125 0
0.3125 0.53125 0
0.34375 0.53125 0
0.3125 0.5625 0
0.34375 0.5625 0
0.34375 0.53125 0
0.375 0.53125 0
0.34375 0.5625 0
0.375 0.5625 0
0.25 0.5625 0
0.28125 0.5625 0
0.25 0.59375 0
0.28125 0.59375 0
0.28125 0.5625 0
0.3125 0.5625 0
0.28125 0.59375 0
0.3125 0.59375 0
0.25 0.59375 0
0.28125 0.59375 0
0.25 0.625 0
0.28125 0.625 0
0.28125 0.59375 0
0.3125 0.59375 0
0.28125 0.625 0
0.3125 0.625 0
0.3125 0.5625 0
0.34375 0.5625 0
0.3125 0.59375 0
0.34375 0.59375 0
0.34375 0.5625 0
0.375 0.5625 0
0.34375 0.59375 0
0.375 0.59375 0
0.3125 0.59375 0
0.34375 0.59375 0
0.3125 0.625 0
0.34375 0.625 0
0.34375 0.59375 0
0.375 0.59375 0
0.34375 0.625 0
0.375 0.625 0
0.375 0.5 0
0.40625 0.5 0
0.375 0.53125 0
0.40625 0.53125 0
0.40625 0.5 0
0.4375 0.5 0
0.40625 0.53125 0
0.4375 0.53125 0
0.375 0.53125 0
0.40625 0.53125 0
0.375 0.5625 0
0.40625 0.5625 0
0.40625 0.53125 0
0.4375 0.53125 0
0.40625 0.5625 0
0.4375 0.5625 0
0.4375 0.5 0
0.46875 0.5 0
0.4375 0.53125 0
0.46875 0.53125 0
0.46875 0.5 0
0.5 0.5 0
0.46875 0.53125 0
0.5 0.53125 0
0.4375 0.53125 0
0.46875 0.53125 0
0.4375 0.5625 0
0.46875 0.5625 0
0.46875 0.53125 0
0.5 0.53125 0
0.46875 0.5625 0
0.5 0.5625 0
0.375 0.5625 0
0.40625 0.5625 0
0.375 0.59375 0
0.40625 0.59375 0
0.40625 0.5625 0
0.4375 0.5625 0
0.40625 0.59375 0
0.4375 0.59375 0
0.375 0.59375 0
0.40625 0.59375 0
0.375 0.625 0
0.40625 0.625 0
0.40625 0.59375 0
0.4375 0.59375 0
0.40625 0.625 0
0.4375 0.625 0
0.4375 0.5625 0
0.46875 0.5625 0
0.4375 0.59375 0
0.46875 0.59375 0
0.46875 0.5625 0
0.5 0.5625 0
0.46875 0.59375 0
0.5 0.59375 0
0.4375 0.59375 0
0.46875 0.59375 0
0.4375 0.625 0
0.46875 0.625 0
0.46875 0.59375 0
0.5 0.59375 0
0.46875 0.625 0
0.5 0.625 0
0.25 0.625 0
0.28125 0.625 0
0.25 0.65625 0
0.28125 0.65625 0
0.28125 0.625 0
0.3125 0.625 0
0.28125 0.65625 0
0.3125 0.65625 0
0.25 0.65625 0
0.28125 0.65625 0
0.25 0.6875 0
0.28125 0.6875 0
0.28125 0.65625 0
0.3125 0.65625 0
0.28125 0.6875 0
0.3125 0.6875 0
0.3125 0.625 0
0.34375 0.625 0
0.3125 0.65625 0
0.34375 0.65625 0
0.34375 0.625 0
0.375 0.625 0
0.34375 0.65625 0
0.375 0.65625 0
0.3125 0.65625 0
0.34375 0.65625 0
0.3125 0.6875 0
0.34375 0.6875 0
0.34375 0.65625 0
0.375 0.65625 0
0.34375 0.6875 0
0.375 0.6875 0
0.25 0.6875 0
0.28125 0.6875 0
0.25 0.71875 0
0.28125 0.71875 0
0.28125 0.6875 0
0.3125 0.6875 0
0.28125 0.71875 0
0.3125 0.71875 0
0.25 0.71875 0
0.28125 0.71875 0
0.25 0.75 0
0.28125 0.75 0
0.28125 0.71875 0
0.3125 0.71875 0
0.28125 0.75 0
0.3125 0.75 0
0.3125 0.6875 0
0.34375 0.6875 0
0.3125 0.71875 0
0.34375 0.71875 0
0.34375 0.6875 0
0.375 0.6875 0
0.34375 0.71875 0
0.375 0.71875 0
0.3125 0.71875 0
0.34375 0.71875 0
0.3125 0.75 0
0.34375 0.75 0
0.34375 0.71875 0
0.375 0.71875 0
0.34375 0.75 0
0.375 0.75 0
0.375 0.625 0
0.40625 0.625 0
0.375 0.65625 0
0.40625 0.65625 0
0.40625 0.625 0
0.4375 0.625 0
0.40625 0.65625 0
0.4375 0.65625 0
0.375 0.65625 0
0.40625 0.65625 0
0.375 0.6875 0
0.40625 0.6875 0
0.40625 0.65625 0
0.4375 0.65625 0
0.40625 0.6875 0
0.4375 0.6875 0
0.4375 0.625 0
0.46875 0.625 0
0.4375 0.65625 0
0.46875 0.65625 0
0.46875 0.625 0
0.5 0.625 0
0.46875 0.65625 0
0.5 0.65625 0
0.4375 0.65625 0
0.46875 0.65625 0
0.4375 0.6875 0
0.46875 0.6875 0
0.46875 0.65625 0
0.5 0.65625 0
0.46875 0.6875 0
0.5 0.6875 0
0.375 0.6875 0
0.40625 0.6875 0
0.375 0.71875 0
0.40625 0.71875 0
0.40625 0.6875 0
0.4375 0.6875 0
0.40625 0.71875 0
0.4375 0.71875 0
0.375 0.71875 0
0.40625 0.71875 0
0.375 0.75 0
0.40625 0.75 0
0.40625 0.71875 0
0.4375 0.71875 0
0.40625 0.75 0
0.4375 0.75 0
0.4375 0.6875 0
0.46875 0.6875 0
0.4375 0.71875 0
0.46875 0.71875 0
0.46875 0.6875 0
0.5 0.6875 0
0.46875 0.71875 0
0.5 0.71875 0
0.4375 0.71875 0
0.46875 0.71875 0
0.4375 0.75 0
0.46875 0.75 0
0.46875 0.71875 0
0.5 0.71875 0
0.46875 0.75 0
0.5 0.75 0
0 0.75 0
0.03125 0.75 0
0 0.78125 0
0.03125 0.78125 0
0.03125 0.75 0
0.0625 0.75 0
0.03125 0.78125 0
0.0625 0.78125 0
0 0.78125 0
0.03125 0.78125 0
0 0.8125 0
0.03125 0.8125 0
0.03125 0.78125 0
0.0625 0.78125 0
0.03125 0.8125 0
0.0625 0.8125 0
0.0625 0.75 0
0.09375 0.75 0
0.0625 0.78125 0
0.09375 0.78125 0
0.09375 0.75 0
0.125 0.75 0
0.09375 0.78125 0
0.125 0.78125 0
0.0625 0.78125 0
0.09375 0.78125 0
0.0625 0.8125 0
0.09375 0.8125 0
0.09375 0.78125 0
0.125 0.78125 0
0.09375 0.8125 0
0.125 0.8125 0
0 0.8125 0
0.03125 0.8125 0
0 0.84375 0
0.03125 0.84375 0
0.03125 0.8125 0
0.0625 0.8125 0
0.03125 0.84375 0
0.0625 0.84375 0
0 0.84375 0
0.03125 0.84375 0
0 0.875 0
0.03125 0.875 0
0.03125 0.84375 0
0.0625 0.84375 0
0.03125 0.875 0
0.0625 0.875 0
0.0625 0.8125 0
0.09375 0.8125 0
0.0625 0.84375 0
0.09375 0.84375 0
0.09375 0.8125 0
0.125 0.8125 0
0.09375 0.84375 0
0.125 0.84375 0
0.0625 0.84375 0
0.09375 0.84375 0
0.0625 0.875 0
0.09375 0.875 0
0.09375 0.84375 0
0.125 0.84375 0
0.09375 0.875 0
0.125 0.875 0
0.125 0.75 0
0.15625 0.75 0
0.125 0.78125 0
0.15625 0.78125 0
0.15625 0.75 0
0.1875 0.75 0
0.15625 0.78125 0
0.1875 0.78125 0
0.125 0.78125 0
0.15625 0.78125 0
0.125 0.8125 0
0.15625 0.8125 0
0.15625 0.78125 0
0.1875 0.78125 0
0.15625 0.8125 0
0.1875 0.8125 0
0.1875 0.75 0
0.21875 0.75 0
0.1875 0.78125 0
0.21875 0.78125 0
0.21875 0.75 0
0.25 0.75 0
0.21875 0.78125 0
0.25 0.78125 0
0.1875 0.78125 0
0.21875 0.78125 0
0.1875 0.8125 0
0.21875 0.8125 0
0.21875 0.78125 0
0.25 0.78125 0
0.21875 0.8125 0
0.25 0.8125 0
0.125 0.8125 0
0.15625 0.8125 0
0.125 0.84375 0
0.15625 0.84375 0
0.15625 0.8125 0
[...]
POINT_DATA 4096
SCALARS State_InstatPDEProblemContainer_0 double 1
LOOKUP_TABLE default
-0.00130648 -0.00130618 -0.00139774 -0.00139754 -0.00130618 -0.00130589 -0.00139754 -0.00139757 -0.00139774 -0.00139754 -0.00148856 -0.00148846 -0.00139754 -0.00139757 -0.00148846 -0.00148878 -0.00130589 -0.00130561 -0.00139757 -0.00139782 -0.00130561 -0.00130534 -0.00139782 -0.00139831 -0.00139757 -0.00139782 -0.00148878 -0.00148953 -0.00139782 -0.00139831 -0.00148953 -0.00149074 -0.00148856 -0.00148846 -0.00157857 -0.00157857 -0.00148846 -0.00148878 -0.00157857 -0.00157914 -0.00157857 -0.00157857 -0.00166744 -0.00166752 -0.00157857 -0.00157914 -0.00166752 -0.0016683 -0.00148878 -0.00148953 -0.00157914 -0.00158032 -0.00148953 -0.00149074 -0.00158032 -0.00158214 -0.00157914 -0.00158032 -0.0016683 -0.00166981 -0.00158032 -0.00158214 -0.00166981 -0.0016721 -0.00130534 -0.00130507 -0.00139831 -0.00139908 -0.00130507 -0.00130479 -0.00139908 -0.00140017 -0.00139831 -0.00139908 -0.00149074 -0.00149247 -0.00139908 -0.00140017 -0.00149247 -0.00149481 -0.00130479 -0.00130451 -0.00140017 -0.00140165 -0.00130451 -0.00130423 -0.00140165 -0.00140362 -0.00140017 -0.00140165 -0.00149481 -0.00149787 -0.00140165 -0.00140362 -0.00149787 -0.00150184 -0.00149074 -0.00149247 -0.00158214 -0.00158468 -0.00149247 -0.00149481 -0.00158468 -0.00158805 -0.00158214 -0.00158468 -0.0016721 -0.00167525 -0.00158468 -0.00158805 -0.00167525 -0.00167937 -0.00149481 -0.00149787 -0.00158805 -0.00159239 -0.00149787 -0.00150184 -0.00159239 -0.0015979 -0.00158805 -0.00159239 -0.00167937 -0.00168459 -0.00159239 -0.0015979 -0.00168459 -0.0016911 -0.00166744 -0.00166752 -0.00175489 -0.00175503 -0.00166752 -0.0016683 -0.00175503 -0.00175596 -0.00175489 -0.00175503 -0.0018407 -0.00184088 -0.00175503 -0.00175596 -0.00184088 -0.00184189 -0.0016683 -0.00166981 -0.00175596 -0.0017577 -0.00166981 -0.0016721 -0.0017577 -0.00176031 -0.00175596 -0.0017577 -0.00184189 -0.00184377 -0.0017577 -0.00176031 -0.00184377 -0.00184654 -0.0018407 -0.00184088 -0.00192471 -0.00192491 -0.00184088 -0.00184189 -0.00192491 -0.00192596 -0.00192471 -0.00192491 -0.00200684 -0.00200704 -0.00192491 -0.00192596 -0.00200704 -0.00200807 -0.00184189 -0.00184377 -0.00192596 -0.00192787 -0.00184377 -0.00184654 -0.00192787 -0.00193066 -0.00192596 -0.00192787 -0.00200807 -0.00200993 -0.00192787 -0.00193066 -0.00200993 -0.00201263 -0.0016721 -0.00167525 -0.00176031 -0.00176385 -0.00167525 -0.00167937 -0.00176385 -0.00176841 -0.00176031 -0.00176385 -0.00184654 -0.00185026 -0.00176385 -0.00176841 -0.00185026 -0.00185499 -0.00167937 -0.00168459 -0.00176841 -0.00177411 -0.00168459 -0.0016911 -0.00177411 -0.0017811 -0.00176841 -0.00177411 -0.00185499 -0.00186081 -0.00177411 -0.0017811 -0.00186081 -0.0018678 -0.00184654 -0.00185026 -0.00193066 -0.00193437 -0.00185026 -0.00185499 -0.00193437 -0.00193904 -0.00193066 -0.00193437 -0.00201263 -0.00201618 -0.00193437 -0.00193904 -0.00201618 -0.00202059 -0.00185499 -0.00186081 -0.00193904 -0.00194468 -0.00186081 -0.0018678 -0.00194468 -0.00195135 -0.00193904 -0.00194468 -0.00202059 -0.00202586 -0.00194468 -0.00195135 -0.00202586 -0.00203196 -0.00130423 -0.00130393 -0.00140362 -0.00140622 -0.00130393 -0.0013036 -0.00140622 -0.0014097 -0.00140362 -0.00140622 -0.00150184 -0.00150697 -0.00140622 -0.0014097 -0.00150697 -0.00151364 -0.0013036 -0.00130325 -0.0014097 -0.00141444 -0.00130325 -0.00130284 -0.00141444 -0.00142108 -0.0014097 -0.00141444 -0.00151364 -0.00152243 -0.00141444 -0.00142108 -0.00152243 -0.00153425 -0.00150184 -0.00150697 -0.0015979 -0.00160488 -0.00150697 -0.00151364 -0.00160488 -0.00161371 -0.0015979 -0.00160488 -0.0016911 -0.00169916 -0.00160488 -0.00161371 -0.00169916 -0.00170907 -0.00151364 -0.00152243 -0.00161371 -0.00162494 -0.00152243 -0.00153425 -0.00162494 -0.00163928 -0.00161371 -0.00162494 -0.00170907 -0.00172116 -0.00162494 -0.00163928 -0.00172116 -0.00173578 -0.00130284 -0.00130234 -0.00142108 -0.00143087 -0.00130234 -0.00130166 -0.00143087 -0.00144644 -0.00142108 -0.00143087 -0.00153425 -0.00155057 -0.00143087 -0.00144644 -0.00155057 -0.00157358 -0.00130166 -0.00130044 -0.00144644 -0.0014738 -0.00130044 -0.00129883 -0.0014738 -0.00153319 -0.00144644 -0.0014738 -0.00157358 -0.00160656 -0.0014738 -0.00153319 -0.00160656 -0.00164128 -0.00153425 -0.00155057 -0.00163928 -0.00165755 -0.00155057 -0.00157358 -0.00165755 -0.00168042 -0.00163928 -0.00165755 -0.00173578 -0.00175308 -0.00165755 -0.00168042 -0.00175308 -0.00177253 -0.00157358 -0.00160656 -0.00168042 -0.00170616 -0.00160656 -0.00164128 -0.00170616 -0.00173257 -0.00168042 -0.00170616 -0.00177253 -0.00179292 -0.00170616 -0.00173257 -0.00179292 -0.00181253 -0.0016911 -0.00169916 -0.0017811 -0.00178952 -0.00169916 -0.00170907 -0.00178952 -0.00179957 -0.0017811 -0.00178952 -0.0018678 -0.00187604 -0.00178952 -0.00179957 -0.00187604 -0.00188558 -0.00170907 -0.00172116 -0.00179957 -0.00181136 -0.00172116 -0.00173578 -0.00181136 -0.00182493 -0.00179957 -0.00181136 -0.00188558 -0.00189638 -0.00181136 -0.00182493 -0.00189638 -0.0019083 -0.0018678 -0.00187604 -0.00195135 -0.00195902 -0.00187604 -0.00188558 -0.00195902 -0.00196766 -0.00195135 -0.00195902 -0.00203196 -0.00203884 -0.00195902 -0.00196766 -0.00203884 -0.00204641 -0.00188558 -0.00189638 -0.00196766 -0.00197715 -0.00189638 -0.0019083 -0.00197715 -0.00198725 -0.00196766 -0.00197715 -0.00204641 -0.00205449 -0.00197715 -0.00198725 -0.00205449 -0.00206284 -0.00173578 -0.00175308 -0.00182493 -0.00184002 -0.00175308 -0.00177253 -0.00184002 -0.001856 -0.00182493 -0.00184002 -0.0019083 -0.00192096 -0.00184002 -0.001856 -0.00192096 -0.0019338 -0.00177253 -0.00179292 -0.001856 -0.0018719 -0.00179292 -0.00181253 -0.0018719 -0.00188686 -0.001856 -0.0018719 -0.0019338 -0.00194619 -0.0018719 -0.00188686 -0.00194619 -0.00195761 -0.0019083 -0.00192096 -0.00198725 -0.00199762 -0.00192096 -0.0019338 -0.00199762 -0.0020078 -0.00198725 -0.00199762 -0.00206284 -0.00207116 -0.00199762 -0.0020078 -0.00207116 -0.00207911 -0.0019338 -0.00194619 -0.0020078 -0.00201736 -0.00194619 -0.00195761 -0.00201736 -0.00202603 -0.0020078 -0.00201736 -0.00207911 -0.0020864 -0.00201736 -0.00202603 -0.0020864 -0.00209286 -0.00200684 -0.00200704 -0.00208703 -0.00208723 -0.00200704 -0.00200807 -0.00208723 -0.0020882 -0.00208703 -0.00208723 -0.00216531 -0.00216549 -0.00208723 -0.0020882 -0.00216549 -0.00216637 -0.00200807 -0.00200993 -0.0020882 -0.00208994 -0.00200993 -0.00201263 -0.00208994 -0.00209246 -0.0020882 -0.00208994 -0.00216637 -0.00216795 -0.00208994 -0.00209246 -0.00216795 -0.00217021 -0.00216531 -0.00216549 -0.00224173 -0.00224188 -0.00216549 -0.00216637 -0.00224188 -0.00224265 -0.00224173 -0.00224188 -0.00231639 -0.0023165 -0.00224188 -0.00224265 -0.0023165 -0.00231713 -0.00216637 -0.00216795 -0.00224265 -0.00224402 -0.00216795 -0.00217021 -0.00224402 -0.00224598 -0.00224265 -0.00224402 -0.00231713 -0.00231827 -0.00224402 -0.00224598 -0.00231827 -0.0023199 -0.00201263 -0.00201618 -0.00209246 -0.00209574 -0.00201618 -0.00202059 -0.00209574 -0.00209977 -0.00209246 -0.00209574 -0.00217021 -0.00217314 -0.00209574 -0.00209977 -0.00217314 -0.0021767 -0.00202059 -0.00202586 -0.00209977 -0.00210451 -0.00202586 -0.00203196 -0.00210451 -0.00210992 -0.00209977 -0.00210451 -0.0021767 -0.00218085 -0.00210451 -0.00210992 -0.00218085 -0.0021855 -0.00217021 -0.00217314 -0.00224598 -0.00224851 -0.00217314 -0.0021767 -0.00224851 -0.00225156 -0.00224598 -0.00224851 -0.0023199 -0.00232199 -0.00224851 -0.00225156 -0.00232199 -0.00232449 -0.0021767 -0.00218085 -0.00225156 -0.00225507 -0.00218085 -0.0021855 -0.00225507 -0.00225895 -0.00225156 -0.00225507 -0.00232449 -0.00232735 -0.00225507 -0.00225895 -0.00232735 -0.00233046 -0.00231639 -0.0023165 -0.00238939 -0.00238945 -0.0023165 -0.00231713 -0.00238945 -0.00238994 -0.00238939 -0.00238945 -0.00246089 -0.00246091 -0.00238945 -0.00238994 -0.00246091 -0.00246122 -0.00231713 -0.00231827 -0.00238994 -0.00239082 -0.00231827 -0.0023199 -0.00239082 -0.0023921 -0.00238994 -0.00239082 -0.00246122 -0.00246184 -0.00239082 -0.0023921 -0.00246184 -0.00246273 -0.00246089 -0.00246091 -0.00253106 -0.00253102 -0.00246091 -0.00246122 -0.00253102 -0.00253117 -0.00253106 -0.00253102 -0.0026 -0.0026 -0.00253102 -0.00253117 -0.0026 -0.0026 -0.00246122 -0.00246184 -0.00253117 -0.00253149 -0.00246184 -0.00246273 -0.00253149 -0.00253196 -0.00253117 -0.00253149 -0.0026 -0.0026 -0.00253149 -0.00253196 -0.0026 -0.0026 -0.0023199 -0.00232199 -0.0023921 -0.00239372 -0.00232199 -0.00232449 -0.00239372 -0.00239566 -0.0023921 -0.00239372 -0.00246273 -0.00246386 -0.00239372 -0.00239566 -0.00246386 -0.00246521 -0.00232449 -0.00232735 -0.00239566 -0.00239785 -0.00232735 -0.00233046 -0.00239785 -0.00240022 -0.00239566 -0.00239785 -0.00246521 -0.00246672 -0.00239785 -0.00240022 -0.00246672 -0.00246834 -0.00246273 -0.00246386 -0.00253196 -0.00253256 -0.00246386 -0.00246521 -0.00253256 -0.00253327 -0.00253196 -0.00253256 -0.0026 -0.0026 -0.00253256 -0.00253327 -0.0026 -0.0026 -0.00246521 -0.00246672 -0.00253327 -0.00253407 -0.00246672 -0.00246834 -0.00253407 -0.00253491 -0.00253327 -0.00253407 -0.0026 -0.0026 -0.00253407 -0.00253491 -0.0026 -0.0026 -0.00203196 -0.00203884 -0.00210992 -0.00211591 -0.00203884 -0.00204641 -0.00211591 -0.00212234 -0.00210992 -0.00211591 -0.0021855 -0.00219056 -0.00211591 -0.00212234 -0.00219056 -0.00219589 -0.00204641 -0.00205449 -0.00212234 -0.00212904 -0.00205449 -0.00206284 -0.00212904 -0.0021358 -0.00212234 -0.00212904 -0.00219589 -0.00220132 -0.00212904 -0.0021358 -0.00220132 -0.00220666 -0.0021855 -0.00219056 -0.00225895 -0.0022631 -0.00219056 -0.00219589 -0.0022631 -0.00226739 -0.00225895 -0.0022631 -0.00233046 -0.00233375 -0.0022631 -0.00226739 -0.00233375 -0.00233709 -0.00219589 -0.00220132 -0.00226739 -0.00227167 -0.00220132 -0.00220666 -0.00227167 -0.00227578 -0.00226739 -0.00227167 -0.00233709 -0.00234034 -0.00227167 -0.00227578 -0.00234034 -0.00234339 -0.00206284 -0.00207116 -0.0021358 -0.00214235 -0.00207116 -0.00207911 -0.00214235 -0.00214844 -0.0021358 -0.00214235 -0.00220666 -0.0022117 -0.00214235 -0.00214844 -0.0022117 -0.00221625 -0.00207911 -0.0020864 -0.00214844 -0.00215388 -0.0020864 -0.00209286 -0.00215388 -0.00215857 -0.00214844 -0.00215388 -0.00221625 -0.00222019 -0.00215388 -0.00215857 -0.00222019 -0.00222345 -0.00220666 -0.0022117 -0.00227578 -0.00227954 -0.0022117 -0.00221625 -0.00227954 -0.00228283 -0.00227578 -0.00227954 -0.00234339 -0.00234609 -0.00227954 -0.00228283 -0.00234609 -0.00234836 -0.00221625 -0.00222019 -0.00228283 -0.00228556 -0.00222019 -0.00222345 -0.00228556 -0.00228768 -0.00228283 -0.00228556 -0.00234836 -0.00235012 -0.00228556 -0.00228768 -0.00235012 -0.00235136 -0.00233046 -0.00233375 -0.00240022 -0.00240268 -0.00233375 -0.00233709 -0.00240268 -0.00240514 -0.00240022 -0.00240268 -0.00246834 -0.00247 -0.00240268 -0.00240514 -0.00247 -0.00247164 -0.00233709 -0.00234034 -0.00240514 -0.00240749 -0.00234034 -0.00234339 -0.00240749 -0.00240962 -0.00240514 -0.00240749 -0.00247164 -0.00247317 -0.00240749 -0.00240962 -0.00247317 -0.00247452 -0.00246834 -0.00247 -0.00253491 -0.00253577 -0.00247 -0.00247164 -0.00253577 -0.00253661 -0.00253491 -0.00253577 -0.0026 -0.0026 -0.00253577 -0.00253661 -0.0026 -0.0026 -0.00247164 -0.00247317 -0.00253661 -0.00253737 -0.00247317 -0.00247452 -0.00253737 -0.00253802 -0.00253661 -0.00253737 -0.0026 -0.0026 -0.00253737 -0.00253802 -0.0026 -0.0026 -0.00234339 -0.00234609 -0.00240962 -0.00241145 -0.00234609 -0.00234836 -0.00241145 -0.00241289 -0.00240962 -0.00241145 -0.00247452 -0.00247562 -0.00241145 -0.00241289 -0.00247562 -0.00247643 -0.00234836 -0.00235012 -0.00241289 -0.00241391 -0.00235012 -0.00235136 -0.00241391 -0.00241451 -0.00241289 -0.00241391 -0.00247643 -0.00247692 -0.00241391 -0.00241451 -0.00247692 -0.00247708 -0.00247452 -0.00247562 -0.00253802 -0.00253853 -0.00247562 -0.00247643 -0.00253853 -0.00253886 -0.00253802 -0.00253853 -0.0026 -0.0026 -0.00253853 -0.00253886 -0.0026 -0.0026 -0.00247643 -0.00247692 -0.00253886 -0.00253901 -0.00247692 -0.00247708 -0.00253901 -0.00253897 -0.00253886 -0.00253901 -0.0026 -0.0026 -0.00253901 -0.00253897 -0.0026 -0.0026 -0.00129883 -0.00149667 -0.00153319 -0.00158094 -0.00149667 -0.00161409 -0.00158094 -0.00164676 -0.00153319 -0.00158094 -0.00164128 -0.00167743 -0.00158094 -0.00164676 -0.00167743 -0.00171225 -0.00161409 -0.00169384 -0.00164676 -0.00170878 -0.00169384 -0.00175417 -0.00170878 -0.00176178 -0.00164676 -0.00170878 -0.00171225 -0.00175213 -0.00170878 -0.00176178 -0.00175213 -0.00179179 -0.00164128 -0.00167743 -0.00173257 -0.00175699 -0.00167743 -0.00171225 -0.00175699 -0.0017816 -0.00173257 -0.00175699 -0.00181253 -0.00183083 -0.00175699 -0.0017816 -0.00183083 -0.00184848 -0.00171225 -0.00175213 -0.0017816 -0.00180772 -0.00175213 -0.00179179 -0.00180772 -0.00183565 -0.0017816 -0.00180772 -0.00184848 -0.00186696 -0.00180772 -0.00183565 -0.00186696 -0.00188664 -0.00175417 -0.00180223 -0.00176178 -0.00180636 -0.00180223 -0.00184154 -0.00180636 -0.00184388 -0.00176178 -0.00180636 -0.00179179 -0.00182833 -0.00180636 -0.00184388 -0.00182833 -0.00186082 -0.00184154 -0.0018741 -0.00184388 -0.00187551 -0.0018741 -0.0019012 -0.00187551 -0.00190214 -0.00184388 -0.00187551 -0.00186082 -0.00188919 -0.00187551 -0.00190214 -0.00188919 -0.00191365 -0.00179179 -0.00182833 -0.00183565 -0.00186342 -0.00182833 -0.00186082 -0.00186342 -0.00188961 -0.00183565 -0.00186342 -0.00188664 -0.00190703 -0.00186342 -0.00188961 -0.00190703 -0.00192717 -0.00186082 -0.00188919 -0.00188961 -0.00191346 -0.00188919 -0.00191365 -0.00191346 -0.00193467 -0.00188961 -0.00191346 -0.00192717 -0.00194626 -0.00191346 -0.00193467 -0.00194626 -0.00196377 -0.00181253 -0.00183083 -0.00188686 -0.00190062 -0.00183083 -0.00184848 -0.00190062 -0.00191373 -0.00188686 -0.00190062 -0.00195761 -0.001968 -0.00190062 -0.00191373 -0.001968 -0.00197772 -0.00184848 -0.00186696 -0.00191373 -0.00192704 -0.00186696 -0.00188664 -0.00192704 -0.00194111 -0.00191373 -0.00192704 -0.00197772 -0.00198737 -0.00192704 -0.00194111 -0.00198737 -0.00199741 -0.00195761 -0.001968 -0.00202603 -0.00203378 -0.001968 -0.00197772 -0.00203378 -0.0020409 -0.00202603 -0.00203378 -0.00209286 -0.00209852 -0.00203378 -0.0020409 -0.00209852 -0.00210359 -0.00197772 -0.00198737 -0.0020409 -0.00204781 -0.00198737 -0.00199741 -0.00204781 -0.00205486 -0.0020409 -0.00204781 -0.00210359 -0.00210837 -0.00204781 -0.00205486 -0.00210837 -0.00211315 -0.00188664 -0.00190703 -0.00194111 -0.00195587 -0.00190703 -0.00192717 -0.00195587 -0.0019709 -0.00194111 -0.00195587 -0.00199741 -0.00200798 -0.00195587 -0.0019709 -0.00200798 -0.00201891 -0.00192717 -0.00194626 -0.0019709 -0.0019856 -0.00194626 -0.00196377 -0.0019856 -0.00199948 -0.0019709 -0.0019856 -0.00201891 -0.00202987 -0.0019856 -0.00199948 -0.00202987 -0.00204048 -0.00199741 -0.00200798 -0.00205486 -0.00206227 -0.00200798 -0.00201891 -0.00206227 -0.00207 -0.00205486 -0.00206227 -0.00211315 -0.00211815 -0.00206227 -0.00207 -0.00211815 -0.0021234 -0.00201891 -0.00202987 -0.00207 -0.0020779 -0.00202987 -0.00204048 -0.0020779 -0.00208571 -0.00207 -0.0020779 -0.0021234 -0.00212885 -0.0020779 -0.00208571 -0.00212885 -0.00213435 -0.0019012 -0.00192371 -0.00190214 -0.00192445 -0.00192371 -0.00194225 -0.00192445 -0.00194297 -0.00190214 -0.00192445 -0.00191365 -0.00193449 -0.00192445 -0.00194297 -0.00193449 -0.001952 -0.00194225 -0.0019573 -0.00194297 -0.00195807 -0.0019573 -0.0019692 -0.00195807 -0.00197006 -0.00194297 -0.00195807 -0.001952 -0.00196641 -0.00195807 -0.00197006 -0.00196641 -0.00197794 -0.00191365 -0.00193449 -0.00193467 -0.00195314 -0.00193449 -0.001952 -0.00195314 -0.00196891 -0.00193467 -0.00195314 -0.00196377 -0.0019794 -0.00195314 -0.00196891 -0.0019794 -0.001993 -0.001952 -0.00196641 -0.00196891 -0.00198206 -0.00196641 -0.00197794 -0.00198206 -0.00199267 -0.00196891 -0.00198206 -0.001993 -0.0020045 -0.00198206 -0.00199267 -0.0020045 -0.00201389 -0.0019692 -0.00197821 -0.00197006 -0.00197917 -0.00197821 -0.00198452 -0.00197917 -0.00198556 -0.00197006 -0.00197917 -0.00197794 -0.00198674 -0.00197917 -0.00198556 -0.00198674 -0.00199294 -0.00198452 -0.00198825 -0.00198556 -0.00198935 -0.00198825 -0.00198949 -0.00198935 -0.0019906 -0.00198556 -0.00198935 -0.00199294 -0.00199662 -0.00198935 -0.0019906 -0.00199662 -0.00199784 -0.00197794 -0.00198674 -0.00199267 -0.00200083 -0.00198674 -0.00199294 -0.00200083 -0.0020066 -0.00199267 -0.00200083 -0.00201389 -0.00202116 -0.00200083 -0.0020066 -0.00202116 -0.00202634 -0.00199294 -0.00199662 -0.0020066 -0.00201004 -0.00199662 -0.00199784 -0.00201004 -0.00201118 -0.0020066 -0.00201004 -0.00202634 -0.00202943 -0.00201004 -0.00201118 -0.00202943 -0.00203045 -0.00196377 -0.0019794 -0.00199948 -0.00201218 -0.0019794 -0.001993 -0.00201218 -0.00202344 -0.00199948 -0.00201218 -0.00204048 -0.00205041 -0.00201218 -0.00202344 -0.00205041 -0.00205939 -0.001993 -0.0020045 -0.00202344 -0.00203312 -0.0020045 -0.00201389 -0.00203312 -0.00204111 -0.00202344 -0.00203312 -0.00205939 -0.00206722 -0.00203312 -0.00204111 -0.00206722 -0.00207377 -0.00204048 -0.00205041 -0.00208571 -0.00209318 -0.00205041 -0.00205939 -0.00209318 -0.00210005 -0.00208571 -0.00209318 -0.00213435 -0.00213972 -0.00209318 -0.00210005 -0.00213972 -0.00214476 -0.00205939 -0.00206722 -0.00210005 -0.00210615 -0.00206722 -0.00207377 -0.00210615 -0.00211131 -0.00210005 -0.00210615 -0.00214476 -0.0021493 -0.00210615 -0.00211131 -0.0021493 -0.00215319 -0.00201389 -0.00202116 -0.00204111 -0.00204735 -0.00202116 -0.00202634 -0.00204735 -0.00205183 -0.00204111 -0.00204735 -0.00207377 -0.00207894 -0.00204735 -0.00205183 -0.00207894 -0.00208266 -0.00202634 -0.00202943 -0.00205183 -0.00205451 -0.00202943 -0.00203045 -0.00205451 -0.00205539 -0.00205183 -0.00205451 -0.00208266 -0.0020849 -0.00205451 -0.00205539 -0.0020849 -0.00208564 -0.00207377 -0.00207894 -0.00211131 -0.00211543 -0.00207894 -0.00208266 -0.00211543 -0.00211841 -0.00211131 -0.00211543 -0.00215319 -0.00215633 -0.00211543 -0.00211841 -0.00215633 -0.00215862 -0.00208266 -0.0020849 -0.00211841 -0.00212021 -0.0020849 -0.00208564 -0.00212021 -0.00212079 -0.00211841 -0.00212021 -0.00215862 -0.00216 -0.00212021 -0.00212079 -0.00216 -0.00216044 -0.00209286 -0.00209852 -0.00215857 -0.00216255 -0.00209852 -0.00210359 -0.00216255 -0.00216598 -0.00215857 -0.00216255 -0.00222345 -0.00222608 -0.00216255 -0.00216598 -0.00222608 -0.00222822 -0.00210359 -0.00210837 -0.00216598 -0.0021691 -0.00210837 -0.00211315 -0.0021691 -0.00217214 -0.00216598 -0.0021691 -0.00222822 -0.00223004 -0.0021691 -0.00217214 -0.00223004 -0.00223174 -0.00222345 -0.00222608 -0.00228768 -0.00228926 -0.00222608 -0.00222822 -0.00228926 -0.00229038 -0.00228768 -0.00228926 -0.00235136 -0.00235213 -0.00228926 -0.00229038 -0.00235213 -0.00235251 -0.00222822 -0.00223004 -0.00229038 -0.00229122 -0.00223004 -0.00223174 -0.00229122 -0.00229191 -0.00229038 -0.00229122 -0.00235251 -0.00235263 -0.00229122 -0.00229191 -0.00235263 -0.0023526 -0.00211315 -0.00211815 -0.00217214 -0.00217528 -0.00211815 -0.0021234 -0.00217528 -0.00217862 -0.00217214 -0.00217528 -0.00223174 -0.00223347 -0.00217528 -0.00217862 -0.00223347 -0.00223535 -0.0021234 -0.00212885 -0.00217862 -0.00218215 -0.00212885 -0.00213435 -0.00218215 -0.00218579 -0.00217862 -0.00218215 -0.00223535 -0.0022374 -0.00218215 -0.00218579 -0.0022374 -0.00223959 -0.00223174 -0.00223347 -0.00229191 -0.0022926 -0.00223347 -0.00223535 -0.0022926 -0.00229339 -0.00229191 -0.0022926 -0.0023526 -0.00235257 -0.0022926 -0.00229339 -0.00235257 -0.0023526 -0.00223535 -0.0022374 -0.00229339 -0.00229433 -0.0022374 -0.00223959 -0.00229433 -0.00229543 -0.00229339 -0.00229433 -0.0023526 -0.00235278 -0.00229433 -0.00229543 -0.00235278 -0.0023531 -0.00235136 -0.00235213 -0.00241451 -0.00241471 -0.00235213 -0.00235251 -0.00241471 -0.00241459 -0.00241451 -0.00241471 -0.00247708 -0.00247696 -0.00241471 -0.00241459 -0.00247696 -0.0024766 -0.00235251 -0.00235263 -0.00241459 -0.00241426 -0.00235263 -0.0023526 -0.00241426 -0.0024138 -0.00241459 -0