# vtk DataFile Version 3.0
#This file was generated by the deal.II library on 2018/7/10 at 10:47:02
ASCII
DATASET UNSTRUCTURED_GRID

POINTS 4096 double
0 0.5 0
0.03125 0.5 0
0 0.53125 0
0.03125 0.53125 0
0.03125 0.5 0
0.0625 0.5 0
0.03125 0.53125 0
0.0625 0.53125 0
0 0.53125 0
0.03125 0.53125 0
0 0.5625 0
0.03125 0.5625 0
0.03125 0.53125 0
0.0625 0.53125 0
0.03125 0.5625 0
0.0625 0.5625 0
0.0625 0.5 0
0.09375 0.5 0
0.0625 0.53125 0
0.09375 0.53125 0
0.09375 0.5 0
0.125 0.5 0
0.09375 0.53125 0
0.125 0.53125 0
0.0625 0.53125 0
0.09375 0.53125 0
0.0625 0.5625 0
0.09375 0.5625 0
0.09375 0.53125 0
0.125 0.53125 0
0.09375 0.5625 0
0.125 0.5625 0
0 0.5625 0
0.03125 0.5625 0
0 0.59375 0
0.03125 0.59375 0
0.03125 0.5625 0
0.0625 0.5625 0
0.03125 0.59375 0
0.0625 0.59375 0
0 0.59375 0
0.03125 0.59375 0
0 0.625 0
0.03125 0.625 0
0.03125 0.59375 0
0.0625 0.59375 0
0.03125 0.625 0
0.0625 0.625 0
0.0625 0.5625 0
0.09375 0.5625 0
0.0625 0.59375 0
0.09375 0.59375 0
0.09375 0.5625 0
0.125 0.5625 0
0.09375 0.59375 0
0.125 0.59375 0
0.0625 0.59375 0
0.09375 0.59375 0
0.0625 0.625 0
0.09375 0.625 0
0.09375 0.59375 0
0.125 0.59375 0
0.09375 0.625 0
0.125 0.625 0
0.125 0.5 0
0.15625 0.5 0
0.125 0.53125 0
0.15625 0.53125 0
0.15625 0.5 0
0.1875 0.5 0
0.15625 0.53125 0
0.1875 0.53125 0
0.125 0.53125 0
0.15625 0.53125 0
0.125 0.5625 0
0.15625 0.5625 0
0.15625 0.53125 0
0.1875 0.53125 0
0.15625 0.5625 0
0.1875 0.5625 0
0.1875 0.5 0
0.21875 0.5 0
0.1875 0.53125 0
0.21875 0.53125 0
0.21875 0.5 0
0.25 0.5 0
0.21875 0.53125 0
0.25 0.53125 0
0.1875 0.53125 0
0.21875 0.53125 0
0.1875 0.5625 0
0.21875 0.5625 0
0.21875 0.53125 0
0.25 0.53125 0
0.21875 0.5625 0
0.25 0.5625 0
0.125 0.5625 0
0.15625 0.5625 0
0.125 0.59375 0
0.15625 0.59375 0
0.15625 0.5625 0
0.1875 0.5625 0
0.15625 0.59375 0
0.1875 0.59375 0
0.125 0.59375 0
0.15625 0.59375 0
0.125 0.625 0
0.15625 0.625 0
0.15625 0.59375 0
0.1875 0.59375 0
0.15625 0.625 0
0.1875 0.625 0
0.1875 0.5625 0
0.21875 0.5625 0
0.1875 0.59375 0
0.21875 0.59375 0
0.21875 0.5625 0
0.25 0.5625 0
0.21875 0.59375 0
0.25 0.59375 0
0.1875 0.59375 0
0.21875 0.59375 0
0.1875 0.625 0
0.21875 0.625 0
0.21875 0.59375 0
0.25 0.59375 0
0.21875 0.625 0
0.25 0.625 0
0 0.625 0
0.03125 0.625 0
0 0.65625 0
0.03125 0.65625 0
0.03125 0.625 0
0.0625 0.625 0
0.03125 0.65625 0
0.0625 0.65625 0
0 0.65625 0
0.03125 0.65625 0
0 0.6875 0
0.03125 0.6875 0
0.03125 0.65625 0
0.0625 0.65625 0
0.03125 0.6875 0
0.0625 0.6875 0
0.0625 0.625 0
0.09375 0.625 0
0.0625 0.65625 0
0.09375 0.65625 0
0.09375 0.625 0
0.125 0.625 0
0.09375 0.65625 0
0.125 0.65625 0
0.0625 0.65625 0
0.09375 0.65625 0
0.0625 0.6875 0
0.09375 0.6875 0
0.09375 0.65625 0
0.125 0.65625 0
0.09375 0.6875 0
0.125 0.6875 0
0 0.6875 0
0.03125 0.6875 0
0 0.71875 0
0.03125 0.71875 0
0.03125 0.6875 0
0.0625 0.6875 0
0.03125 0.71875 0
0.0625 0.71875 0
0 0.71875 0
0.03125 0.71875 0
0 0.75 0
0.03125 0.75 0
0.03125 0.71875 0
0.0625 0.71875 0
0.03125 0.75 0
0.0625 0.75 0
0.0625 0.6875 0
0.09375 0.6875 0
0.0625 0.71875 0
0.09375 0.71875 0
0.09375 0.6875 0
0.125 0.6875 0
0.09375 0.71875 0
0.125 0.71875 0
0.0625 0.71875 0
0.09375 0.71875 0
0.0625 0.75 0
0.09375 0.75 0
0.09375 0.71875 0
0.125 0.71875 0
0.09375 0.75 0
0.125 0.75 0
0.125 0.625 0
0.15625 0.625 0
0.125 0.65625 0
0.15625 0.65625 0
0.15625 0.625 0
0.1875 0.625 0
0.15625 0.65625 0
0.1875 0.65625 0
0.125 0.65625 0
0.15625 0.65625 0
0.125 0.6875 0
0.15625 0.6875 0
0.15625 0.65625 0
0.1875 0.65625 0
0.15625 0.6875 0
0.1875 0.6875 0
0.1875 0.625 0
0.21875 0.625 0
0.1875 0.65625 0
0.21875 0.65625 0
0.21875 0.625 0
0.25 0.625 0
0.21875 0.65625 0
0.25 0.65625 0
0.1875 0.65625 0
0.21875 0.65625 0
0.1875 0.6875 0
0.21875 0.6875 0
0.21875 0.65625 0
0.25 0.65625 0
0.21875 0.6875 0
0.25 0.6875 0
0.125 0.6875 0
0.15625 0.6875 0
0.125 0.71875 0
0.15625 0.71875 0
0.15625 0.6875 0
0.1875 0.6875 0
0.15625 0.71875 0
0.1875 0.71875 0
0.125 0.71875 0
0.15625 0.71875 0
0.125 0.75 0
0.15625 0.75 0
0.15625 0.71875 0
0.1875 0.71875 0
0.15625 0.75 0
0.1875 0.75 0
0.1875 0.6875 0
0.21875 0.6875 0
0.1875 0.71875 0
0.21875 0.71875 0
0.21875 0.6875 0
0.25 0.6875 0
0.21875 0.71875 0
0.25 0.71875 0
0.1875 0.71875 0
0.21875 0.71875 0
0.1875 0.75 0
0.21875 0.75 0
0.21875 0.71875 0
0.25 0.71875 0
0.21875 0.75 0
0.25 0.75 0
0.25 0.5 0
0.28125 0.5 0
0.25 0.53125 0
0.28125 0.53125 0
0.28125 0.5 0
0.3125 0.5 0
0.28125 0.53125 0
0.3125 0.53125 0
0.25 0.53125 0
0.28125 0.53125 0
0.25 0.5625 0
0.28125 0.5625 0
0.28125 0.53125 0
0.3125 0.53125 0
0.28125 0.5625 0
0.3125 0.5625 0
0.3125 0.5 0
0.34375 0.5 0
0.3125 0.53125 0
0.34375 0.53125 0
0.34375 0.5 0
0.375 0.5 0
0.34375 0.53125 0
0.375 0.53125 0
0.3125 0.53125 0
0.34375 0.53125 0
0.3125 0.5625 0
0.34375 0.5625 0
0.34375 0.53125 0
0.375 0.53125 0
0.34375 0.5625 0
0.375 0.5625 0
0.25 0.5625 0
0.28125 0.5625 0
0.25 0.59375 0
0.28125 0.59375 0
0.28125 0.5625 0
0.3125 0.5625 0
0.28125 0.59375 0
0.3125 0.59375 0
0.25 0.59375 0
0.28125 0.59375 0
0.25 0.625 0
0.28125 0.625 0
0.28125 0.59375 0
0.3125 0.59375 0
0.28125 0.625 0
0.3125 0.625 0
0.3125 0.5625 0
0.34375 0.5625 0
0.3125 0.59375 0
0.34375 0.59375 0
0.34375 0.5625 0
0.375 0.5625 0
0.34375 0.59375 0
0.375 0.59375 0
0.3125 0.59375 0
0.34375 0.59375 0
0.3125 0.625 0
0.34375 0.625 0
0.34375 0.59375 0
0.375 0.59375 0
0.34375 0.625 0
0.375 0.625 0
0.375 0.5 0
0.40625 0.5 0
0.375 0.53125 0
0.40625 0.53125 0
0.40625 0.5 0
0.4375 0.5 0
0.40625 0.53125 0
0.4375 0.53125 0
0.375 0.53125 0
0.40625 0.53125 0
0.375 0.5625 0
0.40625 0.5625 0
0.40625 0.53125 0
0.4375 0.53125 0
0.40625 0.5625 0
0.4375 0.5625 0
0.4375 0.5 0
0.46875 0.5 0
0.4375 0.53125 0
0.46875 0.53125 0
0.46875 0.5 0
0.5 0.5 0
0.46875 0.53125 0
0.5 0.53125 0
0.4375 0.53125 0
0.46875 0.53125 0
0.4375 0.5625 0
0.46875 0.5625 0
0.46875 0.53125 0
0.5 0.53125 0
0.46875 0.5625 0
0.5 0.5625 0
0.375 0.5625 0
0.40625 0.5625 0
0.375 0.59375 0
0.40625 0.59375 0
0.40625 0.5625 0
0.4375 0.5625 0
0.40625 0.59375 0
0.4375 0.59375 0
0.375 0.59375 0
0.40625 0.59375 0
0.375 0.625 0
0.40625 0.625 0
0.40625 0.59375 0
0.4375 0.59375 0
0.40625 0.625 0
0.4375 0.625 0
0.4375 0.5625 0
0.46875 0.5625 0
0.4375 0.59375 0
0.46875 0.59375 0
0.46875 0.5625 0
0.5 0.5625 0
0.46875 0.59375 0
0.5 0.59375 0
0.4375 0.59375 0
0.46875 0.59375 0
0.4375 0.625 0
0.46875 0.625 0
0.46875 0.59375 0
0.5 0.59375 0
0.46875 0.625 0
0.5 0.625 0
0.25 0.625 0
0.28125 0.625 0
0.25 0.65625 0
0.28125 0.65625 0
0.28125 0.625 0
0.3125 0.625 0
0.28125 0.65625 0
0.3125 0.65625 0
0.25 0.65625 0
0.28125 0.65625 0
0.25 0.6875 0
0.28125 0.6875 0
0.28125 0.65625 0
0.3125 0.65625 0
0.28125 0.6875 0
0.3125 0.6875 0
0.3125 0.625 0
0.34375 0.625 0
0.3125 0.65625 0
0.34375 0.65625 0
0.34375 0.625 0
0.375 0.625 0
0.34375 0.65625 0
0.375 0.65625 0
0.3125 0.65625 0
0.34375 0.65625 0
0.3125 0.6875 0
0.34375 0.6875 0
0.34375 0.65625 0
0.375 0.65625 0
0.34375 0.6875 0
0.375 0.6875 0
0.25 0.6875 0
0.28125 0.6875 0
0.25 0.71875 0
0.28125 0.71875 0
0.28125 0.6875 0
0.3125 0.6875 0
0.28125 0.71875 0
0.3125 0.71875 0
0.25 0.71875 0
0.28125 0.71875 0
0.25 0.75 0
0.28125 0.75 0
0.28125 0.71875 0
0.3125 0.71875 0
0.28125 0.75 0
0.3125 0.75 0
0.3125 0.6875 0
0.34375 0.6875 0
0.3125 0.71875 0
0.34375 0.71875 0
0.34375 0.6875 0
0.375 0.6875 0
0.34375 0.71875 0
0.375 0.71875 0
0.3125 0.71875 0
0.34375 0.71875 0
0.3125 0.75 0
0.34375 0.75 0
0.34375 0.71875 0
0.375 0.71875 0
0.34375 0.75 0
0.375 0.75 0
0.375 0.625 0
0.40625 0.625 0
0.375 0.65625 0
0.40625 0.65625 0
0.40625 0.625 0
0.4375 0.625 0
0.40625 0.65625 0
0.4375 0.65625 0
0.375 0.65625 0
0.40625 0.65625 0
0.375 0.6875 0
0.40625 0.6875 0
0.40625 0.65625 0
0.4375 0.65625 0
0.40625 0.6875 0
0.4375 0.6875 0
0.4375 0.625 0
0.46875 0.625 0
0.4375 0.65625 0
0.46875 0.65625 0
0.46875 0.625 0
0.5 0.625 0
0.46875 0.65625 0
0.5 0.65625 0
0.4375 0.65625 0
0.46875 0.65625 0
0.4375 0.6875 0
0.46875 0.6875 0
0.46875 0.65625 0
0.5 0.65625 0
0.46875 0.6875 0
0.5 0.6875 0
0.375 0.6875 0
0.40625 0.6875 0
0.375 0.71875 0
0.40625 0.71875 0
0.40625 0.6875 0
0.4375 0.6875 0
0.40625 0.71875 0
0.4375 0.71875 0
0.375 0.71875 0
0.40625 0.71875 0
0.375 0.75 0
0.40625 0.75 0
0.40625 0.71875 0
0.4375 0.71875 0
0.40625 0.75 0
0.4375 0.75 0
0.4375 0.6875 0
0.46875 0.6875 0
0.4375 0.71875 0
0.46875 0.71875 0
0.46875 0.6875 0
0.5 0.6875 0
0.46875 0.71875 0
0.5 0.71875 0
0.4375 0.71875 0
0.46875 0.71875 0
0.4375 0.75 0
0.46875 0.75 0
0.46875 0.71875 0
0.5 0.71875 0
0.46875 0.75 0
0.5 0.75 0
0 0.75 0
0.03125 0.75 0
0 0.78125 0
0.03125 0.78125 0
0.03125 0.75 0
0.0625 0.75 0
0.03125 0.78125 0
0.0625 0.78125 0
0 0.78125 0
0.03125 0.78125 0
0 0.8125 0
0.03125 0.8125 0
0.03125 0.78125 0
0.0625 0.78125 0
0.03125 0.8125 0
0.0625 0.8125 0
0.0625 0.75 0
0.09375 0.75 0
0.0625 0.78125 0
0.09375 0.78125 0
0.09375 0.75 0
0.125 0.75 0
0.09375 0.78125 0
0.125 0.78125 0
0.0625 0.78125 0
0.09375 0.78125 0
0.0625 0.8125 0
0.09375 0.8125 0
0.09375 0.78125 0
0.125 0.78125 0
0.09375 0.8125 0
0.125 0.8125 0
0 0.8125 0
0.03125 0.8125 0
0 0.84375 0
0.03125 0.84375 0
0.03125 0.8125 0
0.0625 0.8125 0
0.03125 0.84375 0
0.0625 0.84375 0
0 0.84375 0
0.03125 0.84375 0
0 0.875 0
0.03125 0.875 0
0.03125 0.84375 0
0.0625 0.84375 0
0.03125 0.875 0
0.0625 0.875 0
0.0625 0.8125 0
0.09375 0.8125 0
0.0625 0.84375 0
0.09375 0.84375 0
0.09375 0.8125 0
0.125 0.8125 0
0.09375 0.84375 0
0.125 0.84375 0
0.0625 0.84375 0
0.09375 0.84375 0
0.0625 0.875 0
0.09375 0.875 0
0.09375 0.84375 0
0.125 0.84375 0
0.09375 0.875 0
0.125 0.875 0
0.125 0.75 0
0.15625 0.75 0
0.125 0.78125 0
0.15625 0.78125 0
0.15625 0.75 0
0.1875 0.75 0
0.15625 0.78125 0
0.1875 0.78125 0
0.125 0.78125 0
0.15625 0.78125 0
0.125 0.8125 0
0.15625 0.8125 0
0.15625 0.78125 0
0.1875 0.78125 0
0.15625 0.8125 0
0.1875 0.8125 0
0.1875 0.75 0
0.21875 0.75 0
0.1875 0.78125 0
0.21875 0.78125 0
0.21875 0.75 0
0.25 0.75 0
0.21875 0.78125 0
0.25 0.78125 0
0.1875 0.78125 0
0.21875 0.78125 0
0.1875 0.8125 0
0.21875 0.8125 0
0.21875 0.78125 0
0.25 0.78125 0
0.21875 0.8125 0
0.25 0.8125 0
0.125 0.8125 0
0.15625 0.8125 0
0.125 0.84375 0
0.15625 0.84375 0
0.15625 0.8125 0
[...]
POINT_DATA 4096
SCALARS State_InstatPDEProblemContainer_0 double 1
LOOKUP_TABLE default
-0.00181685 -0.00181605 -0.00194353 -0.00194289 -0.00181605 -0.0018153 -0.00194289 -0.00194259 -0.00194353 -0.00194289 -0.00206949 -0.002069 -0.00194289 -0.00194259 -0.002069 -0.00206912 -0.0018153 -0.00181461 -0.00194259 -0.00194264 -0.00181461 -0.00181395 -0.00194264 -0.00194306 -0.00194259 -0.00194264 -0.00206912 -0.00206987 -0.00194264 -0.00194306 -0.00206987 -0.0020713 -0.00206949 -0.002069 -0.0021942 -0.00219385 -0.002069 -0.00206912 -0.00219385 -0.00219434 -0.0021942 -0.00219385 -0.0023172 -0.00231697 -0.00219385 -0.00219434 -0.00231697 -0.00231776 -0.00206912 -0.00206987 -0.00219434 -0.00219569 -0.00206987 -0.0020713 -0.00219569 -0.00219797 -0.00219434 -0.00219569 -0.00231776 -0.00231958 -0.00219569 -0.00219797 -0.00231958 -0.00232251 -0.00181395 -0.00181333 -0.00194306 -0.0019439 -0.00181333 -0.00181274 -0.0019439 -0.00194522 -0.00194306 -0.0019439 -0.0020713 -0.00207348 -0.0019439 -0.00194522 -0.00207348 -0.00207653 -0.00181274 -0.00181216 -0.00194522 -0.00194711 -0.00181216 -0.00181161 -0.00194711 -0.00194971 -0.00194522 -0.00194711 -0.00207653 -0.00208062 -0.00194711 -0.00194971 -0.00208062 -0.002086 -0.0020713 -0.00207348 -0.00219797 -0.00220127 -0.00207348 -0.00207653 -0.00220127 -0.00220575 -0.00219797 -0.00220127 -0.00232251 -0.00232665 -0.00220127 -0.00220575 -0.00232665 -0.00233215 -0.00207653 -0.00208062 -0.00220575 -0.00221159 -0.00208062 -0.002086 -0.00221159 -0.00221909 -0.00220575 -0.00221159 -0.00233215 -0.0023392 -0.00221159 -0.00221909 -0.0023392 -0.00234805 -0.0023172 -0.00231697 -0.00243809 -0.00243797 -0.00231697 -0.00231776 -0.00243797 -0.00243897 -0.00243809 -0.00243797 -0.00255658 -0.00255654 -0.00243797 -0.00243897 -0.00255654 -0.00255767 -0.00231776 -0.00231958 -0.00243897 -0.00244112 -0.00231958 -0.00232251 -0.00244112 -0.00244448 -0.00243897 -0.00244112 -0.00255767 -0.00256 -0.00244112 -0.00244448 -0.00256 -0.00256359 -0.00255658 -0.00255654 -0.00267247 -0.00267248 -0.00255654 -0.00255767 -0.00267248 -0.00267367 -0.00267247 -0.00267248 -0.00278565 -0.00278568 -0.00267248 -0.00267367 -0.00278568 -0.00278686 -0.00255767 -0.00256 -0.00267367 -0.00267605 -0.00256 -0.00256359 -0.00267605 -0.00267967 -0.00267367 -0.00267605 -0.00278686 -0.00278918 -0.00267605 -0.00267967 -0.00278918 -0.00279267 -0.00232251 -0.00232665 -0.00244448 -0.00244915 -0.00232665 -0.00233215 -0.00244915 -0.00245526 -0.00244448 -0.00244915 -0.00256359 -0.0025685 -0.00244915 -0.00245526 -0.0025685 -0.00257482 -0.00233215 -0.0023392 -0.00245526 -0.00246294 -0.0023392 -0.00234805 -0.00246294 -0.00247241 -0.00245526 -0.00246294 -0.00257482 -0.00258265 -0.00246294 -0.00247241 -0.00258265 -0.0025921 -0.00256359 -0.0025685 -0.00267967 -0.00268456 -0.0025685 -0.00257482 -0.00268456 -0.00269077 -0.00267967 -0.00268456 -0.00279267 -0.00279734 -0.00268456 -0.00269077 -0.00279734 -0.0028032 -0.00257482 -0.00258265 -0.00269077 -0.00269835 -0.00258265 -0.0025921 -0.00269835 -0.00270733 -0.00269077 -0.00269835 -0.0028032 -0.00281024 -0.00269835 -0.00270733 -0.00281024 -0.00281844 -0.00181161 -0.00181107 -0.00194971 -0.00195322 -0.00181107 -0.00181053 -0.00195322 -0.00195799 -0.00194971 -0.00195322 -0.002086 -0.00209301 -0.00195322 -0.00195799 -0.00209301 -0.00210218 -0.00181053 -0.00180998 -0.00195799 -0.00196454 -0.00180998 -0.00180941 -0.00196454 -0.00197377 -0.00195799 -0.00196454 -0.00210218 -0.00211432 -0.00196454 -0.00197377 -0.00211432 -0.00213067 -0.002086 -0.00209301 -0.00221909 -0.00222864 -0.00209301 -0.00210218 -0.00222864 -0.00224077 -0.00221909 -0.00222864 -0.00234805 -0.00235905 -0.00222864 -0.00224077 -0.00235905 -0.0023726 -0.00210218 -0.00211432 -0.00224077 -0.00225621 -0.00211432 -0.00213067 -0.00225621 -0.00227595 -0.00224077 -0.00225621 -0.0023726 -0.00238917 -0.00225621 -0.00227595 -0.00238917 -0.0024092 -0.00180941 -0.00180875 -0.00197377 -0.00198741 -0.00180875 -0.0018079 -0.00198741 -0.00200909 -0.00197377 -0.00198741 -0.00213067 -0.00215323 -0.00198741 -0.00200909 -0.00215323 -0.00218499 -0.0018079 -0.00180647 -0.00200909 -0.00204705 -0.00180647 -0.00180474 -0.00204705 -0.0021289 -0.00200909 -0.00204705 -0.00218499 -0.00223036 -0.00204705 -0.0021289 -0.00223036 -0.00227801 -0.00213067 -0.00215323 -0.00227595 -0.00230107 -0.00215323 -0.00218499 -0.00230107 -0.00233246 -0.00227595 -0.00230107 -0.0024092 -0.00243289 -0.00230107 -0.00233246 -0.00243289 -0.00245949 -0.00218499 -0.00223036 -0.00233246 -0.00236774 -0.00223036 -0.00227801 -0.00236774 -0.00240393 -0.00233246 -0.00236774 -0.00245949 -0.00248738 -0.00236774 -0.00240393 -0.00248738 -0.00251419 -0.00234805 -0.00235905 -0.00247241 -0.00248388 -0.00235905 -0.0023726 -0.00248388 -0.00249757 -0.00247241 -0.00248388 -0.0025921 -0.00260328 -0.00248388 -0.00249757 -0.00260328 -0.00261624 -0.0023726 -0.00238917 -0.00249757 -0.00251367 -0.00238917 -0.0024092 -0.00251367 -0.00253219 -0.00249757 -0.00251367 -0.00261624 -0.00263093 -0.00251367 -0.00253219 -0.00263093 -0.00264713 -0.0025921 -0.00260328 -0.00270733 -0.0027177 -0.00260328 -0.00261624 -0.0027177 -0.0027294 -0.00270733 -0.0027177 -0.00281844 -0.00282771 -0.0027177 -0.0027294 -0.00282771 -0.00283791 -0.00261624 -0.00263093 -0.0027294 -0.00274226 -0.00263093 -0.00264713 -0.00274226 -0.00275596 -0.0027294 -0.00274226 -0.00283791 -0.00284883 -0.00274226 -0.00275596 -0.00284883 -0.00286012 -0.0024092 -0.00243289 -0.00253219 -0.00255278 -0.00243289 -0.00245949 -0.00255278 -0.00257458 -0.00253219 -0.00255278 -0.00264713 -0.00266436 -0.00255278 -0.00257458 -0.00266436 -0.00268183 -0.00245949 -0.00248738 -0.00257458 -0.00259626 -0.00248738 -0.00251419 -0.00259626 -0.00261669 -0.00257458 -0.00259626 -0.00268183 -0.00269868 -0.00259626 -0.00261669 -0.00269868 -0.00271422 -0.00264713 -0.00266436 -0.00275596 -0.00277002 -0.00266436 -0.00268183 -0.00277002 -0.00278383 -0.00275596 -0.00277002 -0.00286012 -0.00287136 -0.00277002 -0.00278383 -0.00287136 -0.00288211 -0.00268183 -0.00269868 -0.00278383 -0.0027968 -0.00269868 -0.00271422 -0.0027968 -0.00280855 -0.00278383 -0.0027968 -0.00288211 -0.00289196 -0.0027968 -0.00280855 -0.00289196 -0.0029007 -0.00278565 -0.00278568 -0.00289607 -0.00289611 -0.00278568 -0.00278686 -0.00289611 -0.00289722 -0.00289607 -0.00289611 -0.00300377 -0.0030038 -0.00289611 -0.00289722 -0.0030038 -0.00300479 -0.00278686 -0.00278918 -0.00289722 -0.00289939 -0.00278918 -0.00279267 -0.00289939 -0.00290263 -0.00289722 -0.00289939 -0.00300479 -0.00300675 -0.00289939 -0.00290263 -0.00300675 -0.00300965 -0.00300377 -0.0030038 -0.00310883 -0.00310883 -0.0030038 -0.00300479 -0.00310883 -0.00310968 -0.00310883 -0.00310883 -0.00321138 -0.00321135 -0.00310883 -0.00310968 -0.00321135 -0.00321203 -0.00300479 -0.00300675 -0.00310968 -0.00311137 -0.00300675 -0.00300965 -0.00311137 -0.00311388 -0.00310968 -0.00311137 -0.00321203 -0.00321341 -0.00311137 -0.00311388 -0.00321341 -0.00321548 -0.00279267 -0.00279734 -0.00290263 -0.00290693 -0.00279734 -0.0028032 -0.00290693 -0.00291226 -0.00290263 -0.00290693 -0.00300965 -0.00301348 -0.00290693 -0.00291226 -0.00301348 -0.00301818 -0.0028032 -0.00281024 -0.00291226 -0.00291859 -0.00281024 -0.00281844 -0.00291859 -0.00292583 -0.00291226 -0.00291859 -0.00301818 -0.00302368 -0.00291859 -0.00292583 -0.00302368 -0.00302989 -0.00300965 -0.00301348 -0.00311388 -0.00311716 -0.00301348 -0.00301818 -0.00311716 -0.00312117 -0.00311388 -0.00311716 -0.00321548 -0.00321819 -0.00311716 -0.00312117 -0.00321819 -0.00322147 -0.00301818 -0.00302368 -0.00312117 -0.00312581 -0.00302368 -0.00302989 -0.00312581 -0.00313097 -0.00312117 -0.00312581 -0.00322147 -0.00322523 -0.00312581 -0.00313097 -0.00322523 -0.00322936 -0.00321138 -0.00321135 -0.00331159 -0.00331151 -0.00321135 -0.00321203 -0.00331151 -0.003312 -0.00331159 -0.00331151 -0.00340966 -0.00340952 -0.00331151 -0.003312 -0.00340952 -0.00340981 -0.00321203 -0.00321341 -0.003312 -0.00331306 -0.00321341 -0.00321548 -0.00331306 -0.00331466 -0.003312 -0.00331306 -0.00340981 -0.00341053 -0.00331306 -0.00331466 -0.00341053 -0.00341164 -0.00340966 -0.00340952 -0.0035058 -0.00350559 -0.00340952 -0.00340981 -0.00350559 -0.0035057 -0.0035058 -0.00350559 -0.0036 -0.0036 -0.00350559 -0.0035057 -0.0036 -0.0036 -0.00340981 -0.00341053 -0.0035057 -0.00350607 -0.00341053 -0.00341164 -0.00350607 -0.00350666 -0.0035057 -0.00350607 -0.0036 -0.0036 -0.00350607 -0.00350666 -0.0036 -0.0036 -0.00321548 -0.00321819 -0.00331466 -0.00331676 -0.00321819 -0.00322147 -0.00331676 -0.00331929 -0.00331466 -0.00331676 -0.00341164 -0.0034131 -0.00331676 -0.00331929 -0.0034131 -0.00341485 -0.00322147 -0.00322523 -0.00331929 -0.00332217 -0.00322523 -0.00322936 -0.00332217 -0.00332531 -0.00331929 -0.00332217 -0.00341485 -0.00341684 -0.00332217 -0.00332531 -0.00341684 -0.00341898 -0.00341164 -0.0034131 -0.00350666 -0.00350743 -0.0034131 -0.00341485 -0.00350743 -0.00350836 -0.00350666 -0.00350743 -0.0036 -0.0036 -0.00350743 -0.00350836 -0.0036 -0.0036 -0.00341485 -0.00341684 -0.00350836 -0.0035094 -0.00341684 -0.00341898 -0.0035094 -0.00351052 -0.00350836 -0.0035094 -0.0036 -0.0036 -0.0035094 -0.00351052 -0.0036 -0.0036 -0.00281844 -0.00282771 -0.00292583 -0.00293386 -0.00282771 -0.00283791 -0.00293386 -0.00294251 -0.00292583 -0.00293386 -0.00302989 -0.00303666 -0.00293386 -0.00294251 -0.00303666 -0.0030438 -0.00283791 -0.00284883 -0.00294251 -0.00295154 -0.00284883 -0.00286012 -0.00295154 -0.00296064 -0.00294251 -0.00295154 -0.0030438 -0.00305109 -0.00295154 -0.00296064 -0.00305109 -0.00305825 -0.00302989 -0.00303666 -0.00313097 -0.00313651 -0.00303666 -0.0030438 -0.00313651 -0.00314224 -0.00313097 -0.00313651 -0.00322936 -0.00323374 -0.00313651 -0.00314224 -0.00323374 -0.00323818 -0.0030438 -0.00305109 -0.00314224 -0.00314797 -0.00305109 -0.00305825 -0.00314797 -0.00315346 -0.00314224 -0.00314797 -0.00323818 -0.00324253 -0.00314797 -0.00315346 -0.00324253 -0.00324658 -0.00286012 -0.00287136 -0.00296064 -0.00296946 -0.00287136 -0.00288211 -0.00296946 -0.00297766 -0.00296064 -0.00296946 -0.00305825 -0.00306501 -0.00296946 -0.00297766 -0.00306501 -0.00307112 -0.00288211 -0.00289196 -0.00297766 -0.00298498 -0.00289196 -0.0029007 -0.00298498 -0.00299129 -0.00297766 -0.00298498 -0.00307112 -0.00307639 -0.00298498 -0.00299129 -0.00307639 -0.00308075 -0.00305825 -0.00306501 -0.00315346 -0.00315849 -0.00306501 -0.00307112 -0.00315849 -0.00316288 -0.00315346 -0.00315849 -0.00324658 -0.00325018 -0.00315849 -0.00316288 -0.00325018 -0.00325318 -0.00307112 -0.00307639 -0.00316288 -0.0031665 -0.00307639 -0.00308075 -0.0031665 -0.00316931 -0.00316288 -0.0031665 -0.00325318 -0.0032555 -0.0031665 -0.00316931 -0.0032555 -0.00325711 -0.00322936 -0.00323374 -0.00332531 -0.00332858 -0.00323374 -0.00323818 -0.00332858 -0.00333184 -0.00332531 -0.00332858 -0.00341898 -0.00342119 -0.00332858 -0.00333184 -0.00342119 -0.00342336 -0.00323818 -0.00324253 -0.00333184 -0.00333497 -0.00324253 -0.00324658 -0.00333497 -0.0033378 -0.00333184 -0.00333497 -0.00342336 -0.00342539 -0.00333497 -0.0033378 -0.00342539 -0.00342718 -0.00341898 -0.00342119 -0.00351052 -0.00351166 -0.00342119 -0.00342336 -0.00351166 -0.00351276 -0.00351052 -0.00351166 -0.0036 -0.0036 -0.00351166 -0.00351276 -0.0036 -0.0036 -0.00342336 -0.00342539 -0.00351276 -0.00351378 -0.00342539 -0.00342718 -0.00351378 -0.00351464 -0.00351276 -0.00351378 -0.0036 -0.0036 -0.00351378 -0.00351464 -0.0036 -0.0036 -0.00324658 -0.00325018 -0.0033378 -0.00334022 -0.00325018 -0.00325318 -0.00334022 -0.00334212 -0.0033378 -0.00334022 -0.00342718 -0.00342863 -0.00334022 -0.00334212 -0.00342863 -0.00342968 -0.00325318 -0.0032555 -0.00334212 -0.00334344 -0.0032555 -0.00325711 -0.00334344 -0.00334419 -0.00334212 -0.00334344 -0.00342968 -0.0034303 -0.00334344 -0.00334419 -0.0034303 -0.00343048 -0.00342718 -0.00342863 -0.00351464 -0.0035153 -0.00342863 -0.00342968 -0.0035153 -0.00351573 -0.00351464 -0.0035153 -0.0036 -0.0036 -0.0035153 -0.00351573 -0.0036 -0.0036 -0.00342968 -0.0034303 -0.00351573 -0.00351591 -0.0034303 -0.00343048 -0.00351591 -0.00351583 -0.00351573 -0.00351591 -0.0036 -0.0036 -0.00351591 -0.00351583 -0.0036 -0.0036 -0.00180474 -0.00207796 -0.0021289 -0.00219456 -0.00207796 -0.00224008 -0.00219456 -0.00228527 -0.0021289 -0.00219456 -0.00227801 -0.00232769 -0.00219456 -0.00228527 -0.00232769 -0.00237561 -0.00224008 -0.00235007 -0.00228527 -0.00237072 -0.00235007 -0.00243322 -0.00237072 -0.00244373 -0.00228527 -0.00237072 -0.00237561 -0.00243051 -0.00237072 -0.00244373 -0.00243051 -0.00248511 -0.00227801 -0.00232769 -0.00240393 -0.00243742 -0.00232769 -0.00237561 -0.00243742 -0.00247123 -0.00240393 -0.00243742 -0.00251419 -0.00253924 -0.00243742 -0.00247123 -0.00253924 -0.00256344 -0.00237561 -0.00243051 -0.00247123 -0.00250715 -0.00243051 -0.00248511 -0.00250715 -0.00254557 -0.00247123 -0.00250715 -0.00256344 -0.00258881 -0.00250715 -0.00254557 -0.00258881 -0.00261585 -0.00243322 -0.0024994 -0.00244373 -0.00250512 -0.0024994 -0.00255352 -0.00250512 -0.00255677 -0.00244373 -0.00250512 -0.00248511 -0.00253541 -0.00250512 -0.00255677 -0.00253541 -0.00258013 -0.00255352 -0.00259834 -0.00255677 -0.0026003 -0.00259834 -0.00263562 -0.0026003 -0.00263694 -0.00255677 -0.0026003 -0.00258013 -0.00261916 -0.0026003 -0.00263694 -0.00261916 -0.00265282 -0.00248511 -0.00253541 -0.00254557 -0.00258378 -0.00253541 -0.00258013 -0.00258378 -0.00261981 -0.00254557 -0.00258378 -0.00261585 -0.00264389 -0.00258378 -0.00261981 -0.00264389 -0.00267158 -0.00258013 -0.00261916 -0.00261981 -0.00265263 -0.00261916 -0.00265282 -0.00265263 -0.00268179 -0.00261981 -0.00265263 -0.00267158 -0.00269783 -0.00265263 -0.00268179 -0.00269783 -0.0027219 -0.00251419 -0.00253924 -0.00261669 -0.00263547 -0.00253924 -0.00256344 -0.00263547 -0.0026534 -0.00261669 -0.00263547 -0.00271422 -0.00272837 -0.00263547 -0.0026534 -0.00272837 -0.00274163 -0.00256344 -0.00258881 -0.0026534 -0.00267164 -0.00258881 -0.00261585 -0.00267164 -0.00269094 -0.0026534 -0.00267164 -0.00274163 -0.00275482 -0.00267164 -0.00269094 -0.00275482 -0.00276857 -0.00271422 -0.00272837 -0.00280855 -0.00281908 -0.00272837 -0.00274163 -0.00281908 -0.00282876 -0.00280855 -0.00281908 -0.0029007 -0.00290835 -0.00281908 -0.00282876 -0.00290835 -0.0029152 -0.00274163 -0.00275482 -0.00282876 -0.00283816 -0.00275482 -0.00276857 -0.00283816 -0.00284779 -0.00282876 -0.00283816 -0.0029152 -0.00292168 -0.00283816 -0.00284779 -0.00292168 -0.00292818 -0.00261585 -0.00264389 -0.00269094 -0.00271122 -0.00264389 -0.00267158 -0.00271122 -0.00273186 -0.00269094 -0.00271122 -0.00276857 -0.00278306 -0.00271122 -0.00273186 -0.00278306 -0.00279806 -0.00267158 -0.00269783 -0.00273186 -0.00275206 -0.00269783 -0.0027219 -0.00275206 -0.00277113 -0.00273186 -0.00275206 -0.00279806 -0.0028131 -0.00275206 -0.00277113 -0.0028131 -0.00282767 -0.00276857 -0.00278306 -0.00284779 -0.00285792 -0.00278306 -0.00279806 -0.00285792 -0.00286851 -0.00284779 -0.00285792 -0.00292818 -0.00293498 -0.00285792 -0.00286851 -0.00293498 -0.00294215 -0.00279806 -0.0028131 -0.00286851 -0.00287933 -0.0028131 -0.00282767 -0.00287933 -0.00289004 -0.00286851 -0.00287933 -0.00294215 -0.0029496 -0.00287933 -0.00289004 -0.0029496 -0.00295713 -0.00263562 -0.00266658 -0.00263694 -0.00266764 -0.00266658 -0.00269208 -0.00266764 -0.0026931 -0.00263694 -0.00266764 -0.00265282 -0.00268149 -0.00266764 -0.0026931 -0.00268149 -0.00270557 -0.00269208 -0.00271276 -0.0026931 -0.00271386 -0.00271276 -0.00272912 -0.00271386 -0.00273034 -0.0026931 -0.00271386 -0.00270557 -0.00272539 -0.00271386 -0.00273034 -0.00272539 -0.00274124 -0.00265282 -0.00268149 -0.00268179 -0.0027072 -0.00268149 -0.00270557 -0.0027072 -0.00272889 -0.00268179 -0.0027072 -0.0027219 -0.0027434 -0.0027072 -0.00272889 -0.0027434 -0.0027621 -0.00270557 -0.00272539 -0.00272889 -0.00274697 -0.00272539 -0.00274124 -0.00274697 -0.00276155 -0.00272889 -0.00274697 -0.0027621 -0.00277791 -0.00274697 -0.00276155 -0.00277791 -0.00279081 -0.00272912 -0.0027415 -0.00273034 -0.00274286 -0.0027415 -0.00275016 -0.00274286 -0.00275165 -0.00273034 -0.00274286 -0.00274124 -0.00275333 -0.00274286 -0.00275165 -0.00275333 -0.00276185 -0.00275016 -0.00275529 -0.00275165 -0.00275686 -0.00275529 -0.00275699 -0.00275686 -0.00275858 -0.00275165 -0.00275686 -0.00276185 -0.00276691 -0.00275686 -0.00275858 -0.00276691 -0.00276858 -0.00274124 -0.00275333 -0.00276155 -0.00277276 -0.00275333 -0.00276185 -0.00277276 -0.00278069 -0.00276155 -0.00277276 -0.00279081 -0.0028008 -0.00277276 -0.00278069 -0.0028008 -0.0028079 -0.00276185 -0.00276691 -0.00278069 -0.00278542 -0.00276691 -0.00276858 -0.00278542 -0.00278697 -0.00278069 -0.00278542 -0.0028079 -0.00281214 -0.00278542 -0.00278697 -0.00281214 -0.00281353 -0.0027219 -0.0027434 -0.00277113 -0.00278858 -0.0027434 -0.0027621 -0.00278858 -0.00280406 -0.00277113 -0.00278858 -0.00282767 -0.0028413 -0.00278858 -0.00280406 -0.0028413 -0.00285362 -0.0027621 -0.00277791 -0.00280406 -0.00281735 -0.00277791 -0.00279081 -0.00281735 -0.00282833 -0.00280406 -0.00281735 -0.00285362 -0.00286437 -0.00281735 -0.00282833 -0.00286437 -0.00287336 -0.00282767 -0.0028413 -0.00289004 -0.00290027 -0.0028413 -0.00285362 -0.00290027 -0.0029097 -0.00289004 -0.00290027 -0.00295713 -0.00296447 -0.00290027 -0.0029097 -0.00296447 -0.00297136 -0.00285362 -0.00286437 -0.0029097 -0.00291806 -0.00286437 -0.00287336 -0.00291806 -0.00292513 -0.0029097 -0.00291806 -0.00297136 -0.00297757 -0.00291806 -0.00292513 -0.00297757 -0.00298289 -0.00279081 -0.0028008 -0.00282833 -0.0028369 -0.0028008 -0.0028079 -0.0028369 -0.00284303 -0.00282833 -0.0028369 -0.00287336 -0.00288044 -0.0028369 -0.00284303 -0.00288044 -0.00288554 -0.0028079 -0.00281214 -0.00284303 -0.0028467 -0.00281214 -0.00281353 -0.0028467 -0.00284789 -0.00284303 -0.0028467 -0.00288554 -0.00288859 -0.0028467 -0.00284789 -0.00288859 -0.00288957 -0.00287336 -0.00288044 -0.00292513 -0.00293075 -0.00288044 -0.00288554 -0.00293075 -0.00293482 -0.00292513 -0.00293075 -0.00298289 -0.00298717 -0.00293075 -0.00293482 -0.00298717 -0.00299028 -0.00288554 -0.00288859 -0.00293482 -0.00293726 -0.00288859 -0.00288957 -0.00293726 -0.00293802 -0.00293482 -0.00293726 -0.00299028 -0.00299213 -0.00293726 -0.00293802 -0.00299213 -0.00299269 -0.0029007 -0.00290835 -0.00299129 -0.00299664 -0.00290835 -0.0029152 -0.00299664 -0.00300125 -0.00299129 -0.00299664 -0.00308075 -0.00308425 -0.00299664 -0.00300125 -0.00308425 -0.00308709 -0.0029152 -0.00292168 -0.00300125 -0.00300544 -0.00292168 -0.00292818 -0.00300544 -0.00300954 -0.00300125 -0.00300544 -0.00308709 -0.0030895 -0.00300544 -0.00300954 -0.0030895 -0.00309176 -0.00308075 -0.00308425 -0.00316931 -0.00317137 -0.00308425 -0.00308709 -0.00317137 -0.00317284 -0.00316931 -0.00317137 -0.00325711 -0.00325809 -0.00317137 -0.00317284 -0.00325809 -0.00325853 -0.00308709 -0.0030895 -0.00317284 -0.0031739 -0.0030895 -0.00309176 -0.0031739 -0.00317478 -0.00317284 -0.0031739 -0.00325853 -0.00325863 -0.0031739 -0.00317478 -0.00325863 -0.00325854 -0.00292818 -0.00293498 -0.00300954 -0.0030138 -0.00293498 -0.00294215 -0.0030138 -0.00301833 -0.00300954 -0.0030138 -0.00309176 -0.00309408 -0.0030138 -0.00301833 -0.00309408 -0.0030966 -0.00294215 -0.0029496 -0.00301833 -0.00302313 -0.0029496 -0.00295713 -0.00302313 -0.00302809 -0.00301833 -0.00302313 -0.0030966 -0.00309937 -0.00302313 -0.00302809 -0.00309937 -0.00310234 -0.00309176 -0.00309408 -0.00317478 -0.00317567 -0.00309408 -0.0030966 -0.00317567 -0.0031767 -0.00317478 -0.00317567 -0.00325854 -0.00325843 -0.00317567 -0.0031767 -0.00325843 -0.00325843 -0.0030966 -0.00309937 -0.0031767 -0.00317795 -0.00309937 -0.00310234 -0.00317795 -0.00317941 -0.0031767 -0.00317795 -0.00325843 -0.00325862 -0.00317795 -0.00317941 -0.00325862 -0.00325902 -0.00325711 -0.00325809 -0.00334419 -0.0033444 -0.00325809 -0.00325853 -0.0033444 -0.00334418 -0.00334419 -0.0033444 -0.00343048 -0.00343026 -0.0033444 -0.00334418 -0.00343026 -0.00342972 -0.00325853 -0.00325863 -0.00334418 -0.00334366 -0.00325863 -0.00325854 -0.00334366 -0.00334299 -0.00334418 -0