# vtk DataFile Version 3.0
#This file was generated by the deal.II library on 2018/7/10 at 10:47:01
ASCII
DATASET UNSTRUCTURED_GRID

POINTS 4096 double
0 0.5 0
0.03125 0.5 0
0 0.53125 0
0.03125 0.53125 0
0.03125 0.5 0
0.0625 0.5 0
0.03125 0.53125 0
0.0625 0.53125 0
0 0.53125 0
0.03125 0.53125 0
0 0.5625 0
0.03125 0.5625 0
0.03125 0.53125 0
0.0625 0.53125 0
0.03125 0.5625 0
0.0625 0.5625 0
0.0625 0.5 0
0.09375 0.5 0
0.0625 0.53125 0
0.09375 0.53125 0
0.09375 0.5 0
0.125 0.5 0
0.09375 0.53125 0
0.125 0.53125 0
0.0625 0.53125 0
0.09375 0.53125 0
0.0625 0.5625 0
0.09375 0.5625 0
0.09375 0.53125 0
0.125 0.53125 0
0.09375 0.5625 0
0.125 0.5625 0
0 0.5625 0
0.03125 0.5625 0
0 0.59375 0
0.03125 0.59375 0
0.03125 0.5625 0
0.0625 0.5625 0
0.03125 0.59375 0
0.0625 0.59375 0
0 0.59375 0
0.03125 0.59375 0
0 0.625 0
0.03125 0.625 0
0.03125 0.59375 0
0.0625 0.59375 0
0.03125 0.625 0
0.0625 0.625 0
0.0625 0.5625 0
0.09375 0.5625 0
0.0625 0.59375 0
0.09375 0.59375 0
0.09375 0.5625 0
0.125 0.5625 0
0.09375 0.59375 0
0.125 0.59375 0
0.0625 0.59375 0
0.09375 0.59375 0
0.0625 0.625 0
0.09375 0.625 0
0.09375 0.59375 0
0.125 0.59375 0
0.09375 0.625 0
0.125 0.625 0
0.125 0.5 0
0.15625 0.5 0
0.125 0.53125 0
0.15625 0.53125 0
0.15625 0.5 0
0.1875 0.5 0
0.15625 0.53125 0
0.1875 0.53125 0
0.125 0.53125 0
0.15625 0.53125 0
0.125 0.5625 0
0.15625 0.5625 0
0.15625 0.53125 0
0.1875 0.53125 0
0.15625 0.5625 0
0.1875 0.5625 0
0.1875 0.5 0
0.21875 0.5 0
0.1875 0.53125 0
0.21875 0.53125 0
0.21875 0.5 0
0.25 0.5 0
0.21875 0.53125 0
0.25 0.53125 0
0.1875 0.53125 0
0.21875 0.53125 0
0.1875 0.5625 0
0.21875 0.5625 0
0.21875 0.53125 0
0.25 0.53125 0
0.21875 0.5625 0
0.25 0.5625 0
0.125 0.5625 0
0.15625 0.5625 0
0.125 0.59375 0
0.15625 0.59375 0
0.15625 0.5625 0
0.1875 0.5625 0
0.15625 0.59375 0
0.1875 0.59375 0
0.125 0.59375 0
0.15625 0.59375 0
0.125 0.625 0
0.15625 0.625 0
0.15625 0.59375 0
0.1875 0.59375 0
0.15625 0.625 0
0.1875 0.625 0
0.1875 0.5625 0
0.21875 0.5625 0
0.1875 0.59375 0
0.21875 0.59375 0
0.21875 0.5625 0
0.25 0.5625 0
0.21875 0.59375 0
0.25 0.59375 0
0.1875 0.59375 0
0.21875 0.59375 0
0.1875 0.625 0
0.21875 0.625 0
0.21875 0.59375 0
0.25 0.59375 0
0.21875 0.625 0
0.25 0.625 0
0 0.625 0
0.03125 0.625 0
0 0.65625 0
0.03125 0.65625 0
0.03125 0.625 0
0.0625 0.625 0
0.03125 0.65625 0
0.0625 0.65625 0
0 0.65625 0
0.03125 0.65625 0
0 0.6875 0
0.03125 0.6875 0
0.03125 0.65625 0
0.0625 0.65625 0
0.03125 0.6875 0
0.0625 0.6875 0
0.0625 0.625 0
0.09375 0.625 0
0.0625 0.65625 0
0.09375 0.65625 0
0.09375 0.625 0
0.125 0.625 0
0.09375 0.65625 0
0.125 0.65625 0
0.0625 0.65625 0
0.09375 0.65625 0
0.0625 0.6875 0
0.09375 0.6875 0
0.09375 0.65625 0
0.125 0.65625 0
0.09375 0.6875 0
0.125 0.6875 0
0 0.6875 0
0.03125 0.6875 0
0 0.71875 0
0.03125 0.71875 0
0.03125 0.6875 0
0.0625 0.6875 0
0.03125 0.71875 0
0.0625 0.71875 0
0 0.71875 0
0.03125 0.71875 0
0 0.75 0
0.03125 0.75 0
0.03125 0.71875 0
0.0625 0.71875 0
0.03125 0.75 0
0.0625 0.75 0
0.0625 0.6875 0
0.09375 0.6875 0
0.0625 0.71875 0
0.09375 0.71875 0
0.09375 0.6875 0
0.125 0.6875 0
0.09375 0.71875 0
0.125 0.71875 0
0.0625 0.71875 0
0.09375 0.71875 0
0.0625 0.75 0
0.09375 0.75 0
0.09375 0.71875 0
0.125 0.71875 0
0.09375 0.75 0
0.125 0.75 0
0.125 0.625 0
0.15625 0.625 0
0.125 0.65625 0
0.15625 0.65625 0
0.15625 0.625 0
0.1875 0.625 0
0.15625 0.65625 0
0.1875 0.65625 0
0.125 0.65625 0
0.15625 0.65625 0
0.125 0.6875 0
0.15625 0.6875 0
0.15625 0.65625 0
0.1875 0.65625 0
0.15625 0.6875 0
0.1875 0.6875 0
0.1875 0.625 0
0.21875 0.625 0
0.1875 0.65625 0
0.21875 0.65625 0
0.21875 0.625 0
0.25 0.625 0
0.21875 0.65625 0
0.25 0.65625 0
0.1875 0.65625 0
0.21875 0.65625 0
0.1875 0.6875 0
0.21875 0.6875 0
0.21875 0.65625 0
0.25 0.65625 0
0.21875 0.6875 0
0.25 0.6875 0
0.125 0.6875 0
0.15625 0.6875 0
0.125 0.71875 0
0.15625 0.71875 0
0.15625 0.6875 0
0.1875 0.6875 0
0.15625 0.71875 0
0.1875 0.71875 0
0.125 0.71875 0
0.15625 0.71875 0
0.125 0.75 0
0.15625 0.75 0
0.15625 0.71875 0
0.1875 0.71875 0
0.15625 0.75 0
0.1875 0.75 0
0.1875 0.6875 0
0.21875 0.6875 0
0.1875 0.71875 0
0.21875 0.71875 0
0.21875 0.6875 0
0.25 0.6875 0
0.21875 0.71875 0
0.25 0.71875 0
0.1875 0.71875 0
0.21875 0.71875 0
0.1875 0.75 0
0.21875 0.75 0
0.21875 0.71875 0
0.25 0.71875 0
0.21875 0.75 0
0.25 0.75 0
0.25 0.5 0
0.28125 0.5 0
0.25 0.53125 0
0.28125 0.53125 0
0.28125 0.5 0
0.3125 0.5 0
0.28125 0.53125 0
0.3125 0.53125 0
0.25 0.53125 0
0.28125 0.53125 0
0.25 0.5625 0
0.28125 0.5625 0
0.28125 0.53125 0
0.3125 0.53125 0
0.28125 0.5625 0
0.3125 0.5625 0
0.3125 0.5 0
0.34375 0.5 0
0.3125 0.53125 0
0.34375 0.53125 0
0.34375 0.5 0
0.375 0.5 0
0.34375 0.53125 0
0.375 0.53125 0
0.3125 0.53125 0
0.34375 0.53125 0
0.3125 0.5625 0
0.34375 0.5625 0
0.34375 0.53125 0
0.375 0.53125 0
0.34375 0.5625 0
0.375 0.5625 0
0.25 0.5625 0
0.28125 0.5625 0
0.25 0.59375 0
0.28125 0.59375 0
0.28125 0.5625 0
0.3125 0.5625 0
0.28125 0.59375 0
0.3125 0.59375 0
0.25 0.59375 0
0.28125 0.59375 0
0.25 0.625 0
0.28125 0.625 0
0.28125 0.59375 0
0.3125 0.59375 0
0.28125 0.625 0
0.3125 0.625 0
0.3125 0.5625 0
0.34375 0.5625 0
0.3125 0.59375 0
0.34375 0.59375 0
0.34375 0.5625 0
0.375 0.5625 0
0.34375 0.59375 0
0.375 0.59375 0
0.3125 0.59375 0
0.34375 0.59375 0
0.3125 0.625 0
0.34375 0.625 0
0.34375 0.59375 0
0.375 0.59375 0
0.34375 0.625 0
0.375 0.625 0
0.375 0.5 0
0.40625 0.5 0
0.375 0.53125 0
0.40625 0.53125 0
0.40625 0.5 0
0.4375 0.5 0
0.40625 0.53125 0
0.4375 0.53125 0
0.375 0.53125 0
0.40625 0.53125 0
0.375 0.5625 0
0.40625 0.5625 0
0.40625 0.53125 0
0.4375 0.53125 0
0.40625 0.5625 0
0.4375 0.5625 0
0.4375 0.5 0
0.46875 0.5 0
0.4375 0.53125 0
0.46875 0.53125 0
0.46875 0.5 0
0.5 0.5 0
0.46875 0.53125 0
0.5 0.53125 0
0.4375 0.53125 0
0.46875 0.53125 0
0.4375 0.5625 0
0.46875 0.5625 0
0.46875 0.53125 0
0.5 0.53125 0
0.46875 0.5625 0
0.5 0.5625 0
0.375 0.5625 0
0.40625 0.5625 0
0.375 0.59375 0
0.40625 0.59375 0
0.40625 0.5625 0
0.4375 0.5625 0
0.40625 0.59375 0
0.4375 0.59375 0
0.375 0.59375 0
0.40625 0.59375 0
0.375 0.625 0
0.40625 0.625 0
0.40625 0.59375 0
0.4375 0.59375 0
0.40625 0.625 0
0.4375 0.625 0
0.4375 0.5625 0
0.46875 0.5625 0
0.4375 0.59375 0
0.46875 0.59375 0
0.46875 0.5625 0
0.5 0.5625 0
0.46875 0.59375 0
0.5 0.59375 0
0.4375 0.59375 0
0.46875 0.59375 0
0.4375 0.625 0
0.46875 0.625 0
0.46875 0.59375 0
0.5 0.59375 0
0.46875 0.625 0
0.5 0.625 0
0.25 0.625 0
0.28125 0.625 0
0.25 0.65625 0
0.28125 0.65625 0
0.28125 0.625 0
0.3125 0.625 0
0.28125 0.65625 0
0.3125 0.65625 0
0.25 0.65625 0
0.28125 0.65625 0
0.25 0.6875 0
0.28125 0.6875 0
0.28125 0.65625 0
0.3125 0.65625 0
0.28125 0.6875 0
0.3125 0.6875 0
0.3125 0.625 0
0.34375 0.625 0
0.3125 0.65625 0
0.34375 0.65625 0
0.34375 0.625 0
0.375 0.625 0
0.34375 0.65625 0
0.375 0.65625 0
0.3125 0.65625 0
0.34375 0.65625 0
0.3125 0.6875 0
0.34375 0.6875 0
0.34375 0.65625 0
0.375 0.65625 0
0.34375 0.6875 0
0.375 0.6875 0
0.25 0.6875 0
0.28125 0.6875 0
0.25 0.71875 0
0.28125 0.71875 0
0.28125 0.6875 0
0.3125 0.6875 0
0.28125 0.71875 0
0.3125 0.71875 0
0.25 0.71875 0
0.28125 0.71875 0
0.25 0.75 0
0.28125 0.75 0
0.28125 0.71875 0
0.3125 0.71875 0
0.28125 0.75 0
0.3125 0.75 0
0.3125 0.6875 0
0.34375 0.6875 0
0.3125 0.71875 0
0.34375 0.71875 0
0.34375 0.6875 0
0.375 0.6875 0
0.34375 0.71875 0
0.375 0.71875 0
0.3125 0.71875 0
0.34375 0.71875 0
0.3125 0.75 0
0.34375 0.75 0
0.34375 0.71875 0
0.375 0.71875 0
0.34375 0.75 0
0.375 0.75 0
0.375 0.625 0
0.40625 0.625 0
0.375 0.65625 0
0.40625 0.65625 0
0.40625 0.625 0
0.4375 0.625 0
0.40625 0.65625 0
0.4375 0.65625 0
0.375 0.65625 0
0.40625 0.65625 0
0.375 0.6875 0
0.40625 0.6875 0
0.40625 0.65625 0
0.4375 0.65625 0
0.40625 0.6875 0
0.4375 0.6875 0
0.4375 0.625 0
0.46875 0.625 0
0.4375 0.65625 0
0.46875 0.65625 0
0.46875 0.625 0
0.5 0.625 0
0.46875 0.65625 0
0.5 0.65625 0
0.4375 0.65625 0
0.46875 0.65625 0
0.4375 0.6875 0
0.46875 0.6875 0
0.46875 0.65625 0
0.5 0.65625 0
0.46875 0.6875 0
0.5 0.6875 0
0.375 0.6875 0
0.40625 0.6875 0
0.375 0.71875 0
0.40625 0.71875 0
0.40625 0.6875 0
0.4375 0.6875 0
0.40625 0.71875 0
0.4375 0.71875 0
0.375 0.71875 0
0.40625 0.71875 0
0.375 0.75 0
0.40625 0.75 0
0.40625 0.71875 0
0.4375 0.71875 0
0.40625 0.75 0
0.4375 0.75 0
0.4375 0.6875 0
0.46875 0.6875 0
0.4375 0.71875 0
0.46875 0.71875 0
0.46875 0.6875 0
0.5 0.6875 0
0.46875 0.71875 0
0.5 0.71875 0
0.4375 0.71875 0
0.46875 0.71875 0
0.4375 0.75 0
0.46875 0.75 0
0.46875 0.71875 0
0.5 0.71875 0
0.46875 0.75 0
0.5 0.75 0
0 0.75 0
0.03125 0.75 0
0 0.78125 0
0.03125 0.78125 0
0.03125 0.75 0
0.0625 0.75 0
0.03125 0.78125 0
0.0625 0.78125 0
0 0.78125 0
0.03125 0.78125 0
0 0.8125 0
0.03125 0.8125 0
0.03125 0.78125 0
0.0625 0.78125 0
0.03125 0.8125 0
0.0625 0.8125 0
0.0625 0.75 0
0.09375 0.75 0
0.0625 0.78125 0
0.09375 0.78125 0
0.09375 0.75 0
0.125 0.75 0
0.09375 0.78125 0
0.125 0.78125 0
0.0625 0.78125 0
0.09375 0.78125 0
0.0625 0.8125 0
0.09375 0.8125 0
0.09375 0.78125 0
0.125 0.78125 0
0.09375 0.8125 0
0.125 0.8125 0
0 0.8125 0
0.03125 0.8125 0
0 0.84375 0
0.03125 0.84375 0
0.03125 0.8125 0
0.0625 0.8125 0
0.03125 0.84375 0
0.0625 0.84375 0
0 0.84375 0
0.03125 0.84375 0
0 0.875 0
0.03125 0.875 0
0.03125 0.84375 0
0.0625 0.84375 0
0.03125 0.875 0
0.0625 0.875 0
0.0625 0.8125 0
0.09375 0.8125 0
0.0625 0.84375 0
0.09375 0.84375 0
0.09375 0.8125 0
0.125 0.8125 0
0.09375 0.84375 0
0.125 0.84375 0
0.0625 0.84375 0
0.09375 0.84375 0
0.0625 0.875 0
0.09375 0.875 0
0.09375 0.84375 0
0.125 0.84375 0
0.09375 0.875 0
0.125 0.875 0
0.125 0.75 0
0.15625 0.75 0
0.125 0.78125 0
0.15625 0.78125 0
0.15625 0.75 0
0.1875 0.75 0
0.15625 0.78125 0
0.1875 0.78125 0
0.125 0.78125 0
0.15625 0.78125 0
0.125 0.8125 0
0.15625 0.8125 0
0.15625 0.78125 0
0.1875 0.78125 0
0.15625 0.8125 0
0.1875 0.8125 0
0.1875 0.75 0
0.21875 0.75 0
0.1875 0.78125 0
0.21875 0.78125 0
0.21875 0.75 0
0.25 0.75 0
0.21875 0.78125 0
0.25 0.78125 0
0.1875 0.78125 0
0.21875 0.78125 0
0.1875 0.8125 0
0.21875 0.8125 0
0.21875 0.78125 0
0.25 0.78125 0
0.21875 0.8125 0
0.25 0.8125 0
0.125 0.8125 0
0.15625 0.8125 0
0.125 0.84375 0
0.15625 0.84375 0
0.15625 0.8125 0
[...]
POINT_DATA 4096
SCALARS State_InstatPDEProblemContainer_0 double 1
LOOKUP_TABLE default
-0.00171421 -0.00171354 -0.00183379 -0.00183326 -0.00171354 -0.00171291 -0.00183326 -0.00183304 -0.00183379 -0.00183326 -0.0019527 -0.00195232 -0.00183326 -0.00183304 -0.00195232 -0.0019525 -0.00171291 -0.00171232 -0.00183304 -0.00183316 -0.00171232 -0.00171176 -0.00183316 -0.00183361 -0.00183304 -0.00183316 -0.0019525 -0.00195327 -0.00183316 -0.00183361 -0.00195327 -0.00195467 -0.0019527 -0.00195232 -0.00207047 -0.00207021 -0.00195232 -0.0019525 -0.00207021 -0.00207074 -0.00207047 -0.00207021 -0.00218664 -0.0021865 -0.00207021 -0.00207074 -0.0021865 -0.00218731 -0.0019525 -0.00195327 -0.00207074 -0.00207208 -0.00195327 -0.00195467 -0.00207208 -0.00207428 -0.00207074 -0.00207208 -0.00218731 -0.00218909 -0.00207208 -0.00207428 -0.00218909 -0.00219191 -0.00171176 -0.00171122 -0.00183361 -0.00183446 -0.00171122 -0.00171071 -0.00183446 -0.00183574 -0.00183361 -0.00183446 -0.00195467 -0.00195677 -0.00183446 -0.00183574 -0.00195677 -0.0019597 -0.00171071 -0.00171021 -0.00183574 -0.00183756 -0.00171021 -0.00170972 -0.00183756 -0.00184004 -0.00183574 -0.00183756 -0.0019597 -0.00196359 -0.00183756 -0.00184004 -0.00196359 -0.00196869 -0.00195467 -0.00195677 -0.00207428 -0.00207744 -0.00195677 -0.0019597 -0.00207744 -0.00208171 -0.00207428 -0.00207744 -0.00219191 -0.00219587 -0.00207744 -0.00208171 -0.00219587 -0.0022011 -0.0019597 -0.00196359 -0.00208171 -0.00208726 -0.00196359 -0.00196869 -0.00208726 -0.00209438 -0.00208171 -0.00208726 -0.0022011 -0.00220779 -0.00208726 -0.00209438 -0.00220779 -0.00221619 -0.00218664 -0.0021865 -0.00230086 -0.00230081 -0.0021865 -0.00218731 -0.00230081 -0.00230182 -0.00230086 -0.00230081 -0.00241284 -0.00241286 -0.00230081 -0.00230182 -0.00241286 -0.00241399 -0.00218731 -0.00218909 -0.00230182 -0.00230391 -0.00218909 -0.00219191 -0.00230391 -0.00230714 -0.00230182 -0.00230391 -0.00241399 -0.00241625 -0.00230391 -0.00230714 -0.00241625 -0.00241969 -0.00241284 -0.00241286 -0.00252239 -0.00252246 -0.00241286 -0.00241399 -0.00252246 -0.00252363 -0.00252239 -0.00252246 -0.0026294 -0.00262948 -0.00252246 -0.00252363 -0.00262948 -0.00263064 -0.00241399 -0.00241625 -0.00252363 -0.00252594 -0.00241625 -0.00241969 -0.00252594 -0.00252941 -0.00252363 -0.00252594 -0.00263064 -0.00263289 -0.00252594 -0.00252941 -0.00263289 -0.00263624 -0.00219191 -0.00219587 -0.00230714 -0.0023116 -0.00219587 -0.0022011 -0.0023116 -0.00231741 -0.00230714 -0.0023116 -0.00241969 -0.00242438 -0.0023116 -0.00231741 -0.00242438 -0.0024304 -0.0022011 -0.00220779 -0.00231741 -0.00232471 -0.00220779 -0.00221619 -0.00232471 -0.0023337 -0.00231741 -0.00232471 -0.0024304 -0.00243784 -0.00232471 -0.0023337 -0.00243784 -0.00244682 -0.00241969 -0.00242438 -0.00252941 -0.00253408 -0.00242438 -0.0024304 -0.00253408 -0.00254 -0.00252941 -0.00253408 -0.00263624 -0.0026407 -0.00253408 -0.00254 -0.0026407 -0.00264629 -0.0024304 -0.00243784 -0.00254 -0.00254721 -0.00243784 -0.00244682 -0.00254721 -0.00255574 -0.00254 -0.00254721 -0.00264629 -0.00265299 -0.00254721 -0.00255574 -0.00265299 -0.00266079 -0.00170972 -0.00170923 -0.00184004 -0.00184338 -0.00170923 -0.00170874 -0.00184338 -0.00184789 -0.00184004 -0.00184338 -0.00196869 -0.00197533 -0.00184338 -0.00184789 -0.00197533 -0.00198401 -0.00170874 -0.00170823 -0.00184789 -0.00185407 -0.00170823 -0.00170769 -0.00185407 -0.00186279 -0.00184789 -0.00185407 -0.00198401 -0.00199548 -0.00185407 -0.00186279 -0.00199548 -0.00201092 -0.00196869 -0.00197533 -0.00209438 -0.00210342 -0.00197533 -0.00198401 -0.00210342 -0.00211489 -0.00209438 -0.00210342 -0.00221619 -0.00222661 -0.00210342 -0.00211489 -0.00222661 -0.00223945 -0.00198401 -0.00199548 -0.00211489 -0.0021295 -0.00199548 -0.00201092 -0.0021295 -0.00214817 -0.00211489 -0.0021295 -0.00223945 -0.00225513 -0.0021295 -0.00214817 -0.00225513 -0.0022741 -0.00170769 -0.00170706 -0.00186279 -0.00187564 -0.00170706 -0.00170624 -0.00187564 -0.0018961 -0.00186279 -0.00187564 -0.00201092 -0.00203224 -0.00187564 -0.0018961 -0.00203224 -0.00206226 -0.00170624 -0.00170483 -0.0018961 -0.00193193 -0.00170483 -0.00170308 -0.00193193 -0.00200932 -0.0018961 -0.00193193 -0.00206226 -0.00210517 -0.00193193 -0.00200932 -0.00210517 -0.00215026 -0.00201092 -0.00203224 -0.00214817 -0.00217193 -0.00203224 -0.00206226 -0.00217193 -0.00220163 -0.00214817 -0.00217193 -0.0022741 -0.00229652 -0.00217193 -0.00220163 -0.00229652 -0.00232172 -0.00206226 -0.00210517 -0.00220163 -0.00223503 -0.00210517 -0.00215026 -0.00223503 -0.0022693 -0.00220163 -0.00223503 -0.00232172 -0.00234813 -0.00223503 -0.0022693 -0.00234813 -0.00237353 -0.00221619 -0.00222661 -0.0023337 -0.00234457 -0.00222661 -0.00223945 -0.00234457 -0.00235755 -0.0023337 -0.00234457 -0.00244682 -0.00245742 -0.00234457 -0.00235755 -0.00245742 -0.00246971 -0.00223945 -0.00225513 -0.00235755 -0.0023728 -0.00225513 -0.0022741 -0.0023728 -0.00239035 -0.00235755 -0.0023728 -0.00246971 -0.00248365 -0.0023728 -0.00239035 -0.00248365 -0.00249901 -0.00244682 -0.00245742 -0.00255574 -0.00256559 -0.00245742 -0.00246971 -0.00256559 -0.0025767 -0.00255574 -0.00256559 -0.00266079 -0.0026696 -0.00256559 -0.0025767 -0.0026696 -0.00267929 -0.00246971 -0.00248365 -0.0025767 -0.0025889 -0.00248365 -0.00249901 -0.0025889 -0.0026019 -0.0025767 -0.0025889 -0.00267929 -0.00268966 -0.0025889 -0.0026019 -0.00268966 -0.00270038 -0.0022741 -0.00229652 -0.00239035 -0.00240986 -0.00229652 -0.00232172 -0.00240986 -0.00243052 -0.00239035 -0.00240986 -0.00249901 -0.00251535 -0.00240986 -0.00243052 -0.00251535 -0.00253192 -0.00232172 -0.00234813 -0.00243052 -0.00245107 -0.00234813 -0.00237353 -0.00245107 -0.00247042 -0.00243052 -0.00245107 -0.00253192 -0.00254789 -0.00245107 -0.00247042 -0.00254789 -0.00256263 -0.00249901 -0.00251535 -0.0026019 -0.00261524 -0.00251535 -0.00253192 -0.00261524 -0.00262835 -0.0026019 -0.00261524 -0.00270038 -0.00271106 -0.00261524 -0.00262835 -0.00271106 -0.00272127 -0.00253192 -0.00254789 -0.00262835 -0.00264066 -0.00254789 -0.00256263 -0.00264066 -0.00265181 -0.00262835 -0.00264066 -0.00272127 -0.00273062 -0.00264066 -0.00265181 -0.00273062 -0.00273892 -0.0026294 -0.00262948 -0.00273382 -0.00273391 -0.00262948 -0.00263064 -0.00273391 -0.002735 -0.00273382 -0.00273391 -0.00283568 -0.00283576 -0.00273391 -0.002735 -0.00283576 -0.00283674 -0.00263064 -0.00263289 -0.002735 -0.0027371 -0.00263289 -0.00263624 -0.0027371 -0.00274022 -0.002735 -0.0027371 -0.00283674 -0.00283864 -0.0027371 -0.00274022 -0.00283864 -0.00284143 -0.00283568 -0.00283576 -0.00293507 -0.00293511 -0.00283576 -0.00283674 -0.00293511 -0.00293596 -0.00293507 -0.00293511 -0.0030321 -0.0030321 -0.00293511 -0.00293596 -0.0030321 -0.00303279 -0.00283674 -0.00283864 -0.00293596 -0.0029376 -0.00283864 -0.00284143 -0.0029376 -0.00294001 -0.00293596 -0.0029376 -0.00303279 -0.00303414 -0.0029376 -0.00294001 -0.00303414 -0.00303613 -0.00263624 -0.0026407 -0.00274022 -0.00274433 -0.0026407 -0.00264629 -0.00274433 -0.00274942 -0.00274022 -0.00274433 -0.00284143 -0.00284509 -0.00274433 -0.00274942 -0.00284509 -0.00284958 -0.00264629 -0.00265299 -0.00274942 -0.00275544 -0.00265299 -0.00266079 -0.00275544 -0.00276233 -0.00274942 -0.00275544 -0.00284958 -0.00285483 -0.00275544 -0.00276233 -0.00285483 -0.00286074 -0.00284143 -0.00284509 -0.00294001 -0.00294316 -0.00284509 -0.00284958 -0.00294316 -0.00294699 -0.00294001 -0.00294316 -0.00303613 -0.00303873 -0.00294316 -0.00294699 -0.00303873 -0.00304186 -0.00284958 -0.00285483 -0.00294699 -0.00295142 -0.00285483 -0.00286074 -0.00295142 -0.00295634 -0.00294699 -0.00295142 -0.00304186 -0.00304546 -0.00295142 -0.00295634 -0.00304546 -0.0030494 -0.0030321 -0.0030321 -0.00312693 -0.00312689 -0.0030321 -0.00303279 -0.00312689 -0.00312739 -0.00312693 -0.00312689 -0.00321975 -0.00321965 -0.00312689 -0.00312739 -0.00321965 -0.00321996 -0.00303279 -0.00303414 -0.00312739 -0.00312842 -0.00303414 -0.00303613 -0.00312842 -0.00312997 -0.00312739 -0.00312842 -0.00321996 -0.00322066 -0.00312842 -0.00312997 -0.00322066 -0.00322174 -0.00321975 -0.00321965 -0.00331077 -0.00331059 -0.00321965 -0.00321996 -0.00331059 -0.00331072 -0.00331077 -0.00331059 -0.0034 -0.0034 -0.00331059 -0.00331072 -0.0034 -0.0034 -0.00321996 -0.00322066 -0.00331072 -0.00331109 -0.00322066 -0.00322174 -0.00331109 -0.00331166 -0.00331072 -0.00331109 -0.0034 -0.0034 -0.00331109 -0.00331166 -0.0034 -0.0034 -0.00303613 -0.00303873 -0.00312997 -0.00313198 -0.00303873 -0.00304186 -0.00313198 -0.00313441 -0.00312997 -0.00313198 -0.00322174 -0.00322314 -0.00313198 -0.00313441 -0.00322314 -0.00322482 -0.00304186 -0.00304546 -0.00313441 -0.00313716 -0.00304546 -0.0030494 -0.00313716 -0.00314015 -0.00313441 -0.00313716 -0.00322482 -0.00322672 -0.00313716 -0.00314015 -0.00322672 -0.00322876 -0.00322174 -0.00322314 -0.00331166 -0.0033124 -0.00322314 -0.00322482 -0.0033124 -0.00331329 -0.00331166 -0.0033124 -0.0034 -0.0034 -0.0033124 -0.00331329 -0.0034 -0.0034 -0.00322482 -0.00322672 -0.00331329 -0.00331428 -0.00322672 -0.00322876 -0.00331428 -0.00331535 -0.00331329 -0.00331428 -0.0034 -0.0034 -0.00331428 -0.00331535 -0.0034 -0.0034 -0.00266079 -0.0026696 -0.00276233 -0.00276997 -0.0026696 -0.00267929 -0.00276997 -0.0027782 -0.00276233 -0.00276997 -0.00286074 -0.00286718 -0.00276997 -0.0027782 -0.00286718 -0.00287398 -0.00267929 -0.00268966 -0.0027782 -0.00278678 -0.00268966 -0.00270038 -0.00278678 -0.00279542 -0.0027782 -0.00278678 -0.00287398 -0.00288091 -0.00278678 -0.00279542 -0.00288091 -0.00288772 -0.00286074 -0.00286718 -0.00295634 -0.00296161 -0.00286718 -0.00287398 -0.00296161 -0.00296707 -0.00295634 -0.00296161 -0.0030494 -0.00305357 -0.00296161 -0.00296707 -0.00305357 -0.0030578 -0.00287398 -0.00288091 -0.00296707 -0.00297252 -0.00288091 -0.00288772 -0.00297252 -0.00297775 -0.00296707 -0.00297252 -0.0030578 -0.00306194 -0.00297252 -0.00297775 -0.00306194 -0.00306581 -0.00270038 -0.00271106 -0.00279542 -0.00280381 -0.00271106 -0.00272127 -0.00280381 -0.00281161 -0.00279542 -0.00280381 -0.00288772 -0.00289416 -0.00280381 -0.00281161 -0.00289416 -0.00289997 -0.00272127 -0.00273062 -0.00281161 -0.00281857 -0.00273062 -0.00273892 -0.00281857 -0.00282456 -0.00281161 -0.00281857 -0.00289997 -0.00290498 -0.00281857 -0.00282456 -0.00290498 -0.00290913 -0.00288772 -0.00289416 -0.00297775 -0.00298254 -0.00289416 -0.00289997 -0.00298254 -0.00298672 -0.00297775 -0.00298254 -0.00306581 -0.00306924 -0.00298254 -0.00298672 -0.00306924 -0.0030721 -0.00289997 -0.00290498 -0.00298672 -0.00299017 -0.00290498 -0.00290913 -0.00299017 -0.00299286 -0.00298672 -0.00299017 -0.0030721 -0.00307431 -0.00299017 -0.00299286 -0.00307431 -0.00307586 -0.0030494 -0.00305357 -0.00314015 -0.00314327 -0.00305357 -0.0030578 -0.00314327 -0.00314638 -0.00314015 -0.00314327 -0.00322876 -0.00323087 -0.00314327 -0.00314638 -0.00323087 -0.00323294 -0.0030578 -0.00306194 -0.00314638 -0.00314936 -0.00306194 -0.00306581 -0.00314936 -0.00315206 -0.00314638 -0.00314936 -0.00323294 -0.00323487 -0.00314936 -0.00315206 -0.00323487 -0.00323658 -0.00322876 -0.00323087 -0.00331535 -0.00331644 -0.00323087 -0.00323294 -0.00331644 -0.00331749 -0.00331535 -0.00331644 -0.0034 -0.0034 -0.00331644 -0.00331749 -0.0034 -0.0034 -0.00323294 -0.00323487 -0.00331749 -0.00331846 -0.00323487 -0.00323658 -0.00331846 -0.00331928 -0.00331749 -0.00331846 -0.0034 -0.0034 -0.00331846 -0.00331928 -0.0034 -0.0034 -0.00306581 -0.00306924 -0.00315206 -0.00315437 -0.00306924 -0.0030721 -0.00315437 -0.00315619 -0.00315206 -0.00315437 -0.00323658 -0.00323797 -0.00315437 -0.00315619 -0.00323797 -0.00323898 -0.0030721 -0.00307431 -0.00315619 -0.00315746 -0.00307431 -0.00307586 -0.00315746 -0.00315818 -0.00315619 -0.00315746 -0.00323898 -0.00323957 -0.00315746 -0.00315818 -0.00323957 -0.00323975 -0.00323658 -0.00323797 -0.00331928 -0.00331992 -0.00323797 -0.00323898 -0.00331992 -0.00332033 -0.00331928 -0.00331992 -0.0034 -0.0034 -0.00331992 -0.00332033 -0.0034 -0.0034 -0.00323898 -0.00323957 -0.00332033 -0.0033205 -0.00323957 -0.00323975 -0.0033205 -0.00332044 -0.00332033 -0.0033205 -0.0034 -0.0034 -0.0033205 -0.00332044 -0.0034 -0.0034 -0.00170308 -0.00196128 -0.00200932 -0.00207143 -0.00196128 -0.0021145 -0.00207143 -0.00215719 -0.00200932 -0.00207143 -0.00215026 -0.00219726 -0.00207143 -0.00215719 -0.00219726 -0.00224258 -0.0021145 -0.00221847 -0.00215719 -0.00223799 -0.00221847 -0.00229708 -0.00223799 -0.00230701 -0.00215719 -0.00223799 -0.00224258 -0.0022945 -0.00223799 -0.00230701 -0.0022945 -0.00234614 -0.00215026 -0.00219726 -0.0022693 -0.00230099 -0.00219726 -0.00224258 -0.00230099 -0.00233298 -0.0022693 -0.00230099 -0.00237353 -0.00239724 -0.00230099 -0.00233298 -0.00239724 -0.00242016 -0.00224258 -0.0022945 -0.00233298 -0.00236696 -0.0022945 -0.00234614 -0.00236696 -0.00240329 -0.00233298 -0.00236696 -0.00242016 -0.00244416 -0.00236696 -0.00240329 -0.00244416 -0.00246974 -0.00229708 -0.00235967 -0.00230701 -0.00236507 -0.00235967 -0.00241085 -0.00236507 -0.00241391 -0.00230701 -0.00236507 -0.00234614 -0.00239371 -0.00236507 -0.00241391 -0.00239371 -0.002436 -0.00241085 -0.00245324 -0.00241391 -0.00245508 -0.00245324 -0.0024885 -0.00245508 -0.00248974 -0.00241391 -0.00245508 -0.002436 -0.00247292 -0.00245508 -0.00248974 -0.00247292 -0.00250475 -0.00234614 -0.00239371 -0.00240329 -0.00243944 -0.00239371 -0.002436 -0.00243944 -0.00247352 -0.00240329 -0.00243944 -0.00246974 -0.00249627 -0.00243944 -0.00247352 -0.00249627 -0.00252246 -0.002436 -0.00247292 -0.00247352 -0.00250455 -0.00247292 -0.00250475 -0.00250455 -0.00253214 -0.00247352 -0.00250455 -0.00252246 -0.00254729 -0.00250455 -0.00253214 -0.00254729 -0.00257006 -0.00237353 -0.00239724 -0.00247042 -0.00248822 -0.00239724 -0.00242016 -0.00248822 -0.0025052 -0.00247042 -0.00248822 -0.00256263 -0.00257604 -0.00248822 -0.0025052 -0.00257604 -0.00258861 -0.00242016 -0.00244416 -0.0025052 -0.00252246 -0.00244416 -0.00246974 -0.00252246 -0.00254073 -0.0025052 -0.00252246 -0.00258861 -0.0026011 -0.00252246 -0.00254073 -0.0026011 -0.00261412 -0.00256263 -0.00257604 -0.00265181 -0.0026618 -0.00257604 -0.00258861 -0.0026618 -0.00267098 -0.00265181 -0.0026618 -0.00273892 -0.00274618 -0.0026618 -0.00267098 -0.00274618 -0.00275269 -0.00258861 -0.0026011 -0.00267098 -0.00267989 -0.0026011 -0.00261412 -0.00267989 -0.00268901 -0.00267098 -0.00267989 -0.00275269 -0.00275884 -0.00267989 -0.00268901 -0.00275884 -0.00276501 -0.00246974 -0.00249627 -0.00254073 -0.00255992 -0.00249627 -0.00252246 -0.00255992 -0.00257945 -0.00254073 -0.00255992 -0.00261412 -0.00262783 -0.00255992 -0.00257945 -0.00262783 -0.00264203 -0.00252246 -0.00254729 -0.00257945 -0.00259856 -0.00254729 -0.00257006 -0.00259856 -0.0026166 -0.00257945 -0.00259856 -0.00264203 -0.00265627 -0.00259856 -0.0026166 -0.00265627 -0.00267005 -0.00261412 -0.00262783 -0.00268901 -0.0026986 -0.00262783 -0.00264203 -0.0026986 -0.00270863 -0.00268901 -0.0026986 -0.00276501 -0.00277145 -0.0026986 -0.00270863 -0.00277145 -0.00277825 -0.00264203 -0.00265627 -0.00270863 -0.00271888 -0.00265627 -0.00267005 -0.00271888 -0.00272901 -0.00270863 -0.00271888 -0.00277825 -0.0027853 -0.00271888 -0.00272901 -0.0027853 -0.00279243 -0.0024885 -0.00251778 -0.00248974 -0.00251877 -0.00251778 -0.0025419 -0.00251877 -0.00254286 -0.00248974 -0.00251877 -0.00250475 -0.00253187 -0.00251877 -0.00254286 -0.00253187 -0.00255464 -0.0025419 -0.00256147 -0.00254286 -0.0025625 -0.00256147 -0.00257694 -0.0025625 -0.00257809 -0.00254286 -0.0025625 -0.00255464 -0.00257339 -0.0025625 -0.00257809 -0.00257339 -0.00258838 -0.00250475 -0.00253187 -0.00253214 -0.00255617 -0.00253187 -0.00255464 -0.00255617 -0.00257669 -0.00253214 -0.00255617 -0.00257006 -0.0025904 -0.00255617 -0.00257669 -0.0025904 -0.00260808 -0.00255464 -0.00257339 -0.00257669 -0.00259379 -0.00257339 -0.00258838 -0.00259379 -0.00260759 -0.00257669 -0.00259379 -0.00260808 -0.00262304 -0.00259379 -0.00260759 -0.00262304 -0.00263524 -0.00257694 -0.00258865 -0.00257809 -0.00258994 -0.00258865 -0.00259685 -0.00258994 -0.00259825 -0.00257809 -0.00258994 -0.00258838 -0.00259983 -0.00258994 -0.00259825 -0.00259983 -0.00260788 -0.00259685 -0.00260171 -0.00259825 -0.00260317 -0.00260171 -0.00260331 -0.00260317 -0.0026048 -0.00259825 -0.00260317 -0.00260788 -0.00261267 -0.00260317 -0.0026048 -0.00261267 -0.00261425 -0.00258838 -0.00259983 -0.00260759 -0.0026182 -0.00259983 -0.00260788 -0.0026182 -0.0026257 -0.00260759 -0.0026182 -0.00263524 -0.0026447 -0.0026182 -0.0026257 -0.0026447 -0.00265142 -0.00260788 -0.00261267 -0.0026257 -0.00263017 -0.00261267 -0.00261425 -0.00263017 -0.00263164 -0.0026257 -0.00263017 -0.00265142 -0.00265543 -0.00263017 -0.00263164 -0.00265543 -0.00265675 -0.00257006 -0.0025904 -0.0026166 -0.00263311 -0.0025904 -0.00260808 -0.00263311 -0.00264776 -0.0026166 -0.00263311 -0.00267005 -0.00268295 -0.00263311 -0.00264776 -0.00268295 -0.00269461 -0.00260808 -0.00262304 -0.00264776 -0.00266033 -0.00262304 -0.00263524 -0.00266033 -0.00267072 -0.00264776 -0.00266033 -0.00269461 -0.00270479 -0.00266033 -0.00267072 -0.00270479 -0.00271329 -0.00267005 -0.00268295 -0.00272901 -0.0027387 -0.00268295 -0.00269461 -0.0027387 -0.00274762 -0.00272901 -0.0027387 -0.00279243 -0.00279938 -0.0027387 -0.00274762 -0.00279938 -0.00280591 -0.00269461 -0.00270479 -0.00274762 -0.00275553 -0.00270479 -0.00271329 -0.00275553 -0.00276223 -0.00274762 -0.00275553 -0.00280591 -0.00281179 -0.00275553 -0.00276223 -0.00281179 -0.00281683 -0.00263524 -0.0026447 -0.00267072 -0.00267883 -0.0026447 -0.00265142 -0.00267883 -0.00268463 -0.00267072 -0.00267883 -0.00271329 -0.00272 -0.00267883 -0.00268463 -0.00272 -0.00272482 -0.00265142 -0.00265543 -0.00268463 -0.00268811 -0.00265543 -0.00265675 -0.00268811 -0.00268924 -0.00268463 -0.00268811 -0.00272482 -0.00272771 -0.00268811 -0.00268924 -0.00272771 -0.00272865 -0.00271329 -0.00272 -0.00276223 -0.00276756 -0.00272 -0.00272482 -0.00276756 -0.00277141 -0.00276223 -0.00276756 -0.00281683 -0.00282089 -0.00276756 -0.00277141 -0.00282089 -0.00282383 -0.00272482 -0.00272771 -0.00277141 -0.00277373 -0.00272771 -0.00272865 -0.00277373 -0.00277446 -0.00277141 -0.00277373 -0.00282383 -0.0028256 -0.00277373 -0.00277446 -0.0028256 -0.00282613 -0.00273892 -0.00274618 -0.00282456 -0.00282965 -0.00274618 -0.00275269 -0.00282965 -0.00283403 -0.00282456 -0.00282965 -0.00290913 -0.00291247 -0.00282965 -0.00283403 -0.00291247 -0.00291518 -0.00275269 -0.00275884 -0.00283403 -0.00283802 -0.00275884 -0.00276501 -0.00283802 -0.00284191 -0.00283403 -0.00283802 -0.00291518 -0.00291748 -0.00283802 -0.00284191 -0.00291748 -0.00291963 -0.00290913 -0.00291247 -0.00299286 -0.00299483 -0.00291247 -0.00291518 -0.00299483 -0.00299623 -0.00299286 -0.00299483 -0.00307586 -0.0030768 -0.00299483 -0.00299623 -0.0030768 -0.00307724 -0.00291518 -0.00291748 -0.00299623 -0.00299725 -0.00291748 -0.00291963 -0.00299725 -0.0029981 -0.00299623 -0.00299725 -0.00307724 -0.00307734 -0.00299725 -0.0029981 -0.00307734 -0.00307727 -0.00276501 -0.00277145 -0.00284191 -0.00284595 -0.00277145 -0.00277825 -0.00284595 -0.00285025 -0.00284191 -0.00284595 -0.00291963 -0.00292184 -0.00284595 -0.00285025 -0.00292184 -0.00292424 -0.00277825 -0.0027853 -0.00285025 -0.0028548 -0.0027853 -0.00279243 -0.0028548 -0.00285951 -0.00285025 -0.0028548 -0.00292424 -0.00292687 -0.0028548 -0.00285951 -0.00292687 -0.00292968 -0.00291963 -0.00292184 -0.0029981 -0.00299896 -0.00292184 -0.00292424 -0.00299896 -0.00299995 -0.0029981 -0.00299896 -0.00307727 -0.00307718 -0.00299896 -0.00299995 -0.00307718 -0.00307719 -0.00292424 -0.00292687 -0.00299995 -0.00300114 -0.00292687 -0.00292968 -0.00300114 -0.00300253 -0.00299995 -0.00300114 -0.00307719 -0.00307738 -0.00300114 -0.00300253 -0.00307738 -0.00307777 -0.00307586 -0.0030768 -0.00315818 -0.00315839 -0.0030768 -0.00307724 -0.00315839 -0.0031582 -0.00315818 -0.00315839 -0.00323975 -0.00323955 -0.00315839 -0.0031582 -0.00323955 -0.00323905 -0.00307724 -0.00307734 -0.0031582 -0.00315772 -0.00307734 -0.00307727 -0.00315772 -0.00315709 -0.0031582 