# vtk DataFile Version 3.0
#This file was generated by the deal.II library on 2018/7/10 at 10:46:51
ASCII
DATASET UNSTRUCTURED_GRID

POINTS 4096 double
0 0.5 0
0.03125 0.5 0
0 0.53125 0
0.03125 0.53125 0
0.03125 0.5 0
0.0625 0.5 0
0.03125 0.53125 0
0.0625 0.53125 0
0 0.53125 0
0.03125 0.53125 0
0 0.5625 0
0.03125 0.5625 0
0.03125 0.53125 0
0.0625 0.53125 0
0.03125 0.5625 0
0.0625 0.5625 0
0.0625 0.5 0
0.09375 0.5 0
0.0625 0.53125 0
0.09375 0.53125 0
0.09375 0.5 0
0.125 0.5 0
0.09375 0.53125 0
0.125 0.53125 0
0.0625 0.53125 0
0.09375 0.53125 0
0.0625 0.5625 0
0.09375 0.5625 0
0.09375 0.53125 0
0.125 0.53125 0
0.09375 0.5625 0
0.125 0.5625 0
0 0.5625 0
0.03125 0.5625 0
0 0.59375 0
0.03125 0.59375 0
0.03125 0.5625 0
0.0625 0.5625 0
0.03125 0.59375 0
0.0625 0.59375 0
0 0.59375 0
0.03125 0.59375 0
0 0.625 0
0.03125 0.625 0
0.03125 0.59375 0
0.0625 0.59375 0
0.03125 0.625 0
0.0625 0.625 0
0.0625 0.5625 0
0.09375 0.5625 0
0.0625 0.59375 0
0.09375 0.59375 0
0.09375 0.5625 0
0.125 0.5625 0
0.09375 0.59375 0
0.125 0.59375 0
0.0625 0.59375 0
0.09375 0.59375 0
0.0625 0.625 0
0.09375 0.625 0
0.09375 0.59375 0
0.125 0.59375 0
0.09375 0.625 0
0.125 0.625 0
0.125 0.5 0
0.15625 0.5 0
0.125 0.53125 0
0.15625 0.53125 0
0.15625 0.5 0
0.1875 0.5 0
0.15625 0.53125 0
0.1875 0.53125 0
0.125 0.53125 0
0.15625 0.53125 0
0.125 0.5625 0
0.15625 0.5625 0
0.15625 0.53125 0
0.1875 0.53125 0
0.15625 0.5625 0
0.1875 0.5625 0
0.1875 0.5 0
0.21875 0.5 0
0.1875 0.53125 0
0.21875 0.53125 0
0.21875 0.5 0
0.25 0.5 0
0.21875 0.53125 0
0.25 0.53125 0
0.1875 0.53125 0
0.21875 0.53125 0
0.1875 0.5625 0
0.21875 0.5625 0
0.21875 0.53125 0
0.25 0.53125 0
0.21875 0.5625 0
0.25 0.5625 0
0.125 0.5625 0
0.15625 0.5625 0
0.125 0.59375 0
0.15625 0.59375 0
0.15625 0.5625 0
0.1875 0.5625 0
0.15625 0.59375 0
0.1875 0.59375 0
0.125 0.59375 0
0.15625 0.59375 0
0.125 0.625 0
0.15625 0.625 0
0.15625 0.59375 0
0.1875 0.59375 0
0.15625 0.625 0
0.1875 0.625 0
0.1875 0.5625 0
0.21875 0.5625 0
0.1875 0.59375 0
0.21875 0.59375 0
0.21875 0.5625 0
0.25 0.5625 0
0.21875 0.59375 0
0.25 0.59375 0
0.1875 0.59375 0
0.21875 0.59375 0
0.1875 0.625 0
0.21875 0.625 0
0.21875 0.59375 0
0.25 0.59375 0
0.21875 0.625 0
0.25 0.625 0
0 0.625 0
0.03125 0.625 0
0 0.65625 0
0.03125 0.65625 0
0.03125 0.625 0
0.0625 0.625 0
0.03125 0.65625 0
0.0625 0.65625 0
0 0.65625 0
0.03125 0.65625 0
0 0.6875 0
0.03125 0.6875 0
0.03125 0.65625 0
0.0625 0.65625 0
0.03125 0.6875 0
0.0625 0.6875 0
0.0625 0.625 0
0.09375 0.625 0
0.0625 0.65625 0
0.09375 0.65625 0
0.09375 0.625 0
0.125 0.625 0
0.09375 0.65625 0
0.125 0.65625 0
0.0625 0.65625 0
0.09375 0.65625 0
0.0625 0.6875 0
0.09375 0.6875 0
0.09375 0.65625 0
0.125 0.65625 0
0.09375 0.6875 0
0.125 0.6875 0
0 0.6875 0
0.03125 0.6875 0
0 0.71875 0
0.03125 0.71875 0
0.03125 0.6875 0
0.0625 0.6875 0
0.03125 0.71875 0
0.0625 0.71875 0
0 0.71875 0
0.03125 0.71875 0
0 0.75 0
0.03125 0.75 0
0.03125 0.71875 0
0.0625 0.71875 0
0.03125 0.75 0
0.0625 0.75 0
0.0625 0.6875 0
0.09375 0.6875 0
0.0625 0.71875 0
0.09375 0.71875 0
0.09375 0.6875 0
0.125 0.6875 0
0.09375 0.71875 0
0.125 0.71875 0
0.0625 0.71875 0
0.09375 0.71875 0
0.0625 0.75 0
0.09375 0.75 0
0.09375 0.71875 0
0.125 0.71875 0
0.09375 0.75 0
0.125 0.75 0
0.125 0.625 0
0.15625 0.625 0
0.125 0.65625 0
0.15625 0.65625 0
0.15625 0.625 0
0.1875 0.625 0
0.15625 0.65625 0
0.1875 0.65625 0
0.125 0.65625 0
0.15625 0.65625 0
0.125 0.6875 0
0.15625 0.6875 0
0.15625 0.65625 0
0.1875 0.65625 0
0.15625 0.6875 0
0.1875 0.6875 0
0.1875 0.625 0
0.21875 0.625 0
0.1875 0.65625 0
0.21875 0.65625 0
0.21875 0.625 0
0.25 0.625 0
0.21875 0.65625 0
0.25 0.65625 0
0.1875 0.65625 0
0.21875 0.65625 0
0.1875 0.6875 0
0.21875 0.6875 0
0.21875 0.65625 0
0.25 0.65625 0
0.21875 0.6875 0
0.25 0.6875 0
0.125 0.6875 0
0.15625 0.6875 0
0.125 0.71875 0
0.15625 0.71875 0
0.15625 0.6875 0
0.1875 0.6875 0
0.15625 0.71875 0
0.1875 0.71875 0
0.125 0.71875 0
0.15625 0.71875 0
0.125 0.75 0
0.15625 0.75 0
0.15625 0.71875 0
0.1875 0.71875 0
0.15625 0.75 0
0.1875 0.75 0
0.1875 0.6875 0
0.21875 0.6875 0
0.1875 0.71875 0
0.21875 0.71875 0
0.21875 0.6875 0
0.25 0.6875 0
0.21875 0.71875 0
0.25 0.71875 0
0.1875 0.71875 0
0.21875 0.71875 0
0.1875 0.75 0
0.21875 0.75 0
0.21875 0.71875 0
0.25 0.71875 0
0.21875 0.75 0
0.25 0.75 0
0.25 0.5 0
0.28125 0.5 0
0.25 0.53125 0
0.28125 0.53125 0
0.28125 0.5 0
0.3125 0.5 0
0.28125 0.53125 0
0.3125 0.53125 0
0.25 0.53125 0
0.28125 0.53125 0
0.25 0.5625 0
0.28125 0.5625 0
0.28125 0.53125 0
0.3125 0.53125 0
0.28125 0.5625 0
0.3125 0.5625 0
0.3125 0.5 0
0.34375 0.5 0
0.3125 0.53125 0
0.34375 0.53125 0
0.34375 0.5 0
0.375 0.5 0
0.34375 0.53125 0
0.375 0.53125 0
0.3125 0.53125 0
0.34375 0.53125 0
0.3125 0.5625 0
0.34375 0.5625 0
0.34375 0.53125 0
0.375 0.53125 0
0.34375 0.5625 0
0.375 0.5625 0
0.25 0.5625 0
0.28125 0.5625 0
0.25 0.59375 0
0.28125 0.59375 0
0.28125 0.5625 0
0.3125 0.5625 0
0.28125 0.59375 0
0.3125 0.59375 0
0.25 0.59375 0
0.28125 0.59375 0
0.25 0.625 0
0.28125 0.625 0
0.28125 0.59375 0
0.3125 0.59375 0
0.28125 0.625 0
0.3125 0.625 0
0.3125 0.5625 0
0.34375 0.5625 0
0.3125 0.59375 0
0.34375 0.59375 0
0.34375 0.5625 0
0.375 0.5625 0
0.34375 0.59375 0
0.375 0.59375 0
0.3125 0.59375 0
0.34375 0.59375 0
0.3125 0.625 0
0.34375 0.625 0
0.34375 0.59375 0
0.375 0.59375 0
0.34375 0.625 0
0.375 0.625 0
0.375 0.5 0
0.40625 0.5 0
0.375 0.53125 0
0.40625 0.53125 0
0.40625 0.5 0
0.4375 0.5 0
0.40625 0.53125 0
0.4375 0.53125 0
0.375 0.53125 0
0.40625 0.53125 0
0.375 0.5625 0
0.40625 0.5625 0
0.40625 0.53125 0
0.4375 0.53125 0
0.40625 0.5625 0
0.4375 0.5625 0
0.4375 0.5 0
0.46875 0.5 0
0.4375 0.53125 0
0.46875 0.53125 0
0.46875 0.5 0
0.5 0.5 0
0.46875 0.53125 0
0.5 0.53125 0
0.4375 0.53125 0
0.46875 0.53125 0
0.4375 0.5625 0
0.46875 0.5625 0
0.46875 0.53125 0
0.5 0.53125 0
0.46875 0.5625 0
0.5 0.5625 0
0.375 0.5625 0
0.40625 0.5625 0
0.375 0.59375 0
0.40625 0.59375 0
0.40625 0.5625 0
0.4375 0.5625 0
0.40625 0.59375 0
0.4375 0.59375 0
0.375 0.59375 0
0.40625 0.59375 0
0.375 0.625 0
0.40625 0.625 0
0.40625 0.59375 0
0.4375 0.59375 0
0.40625 0.625 0
0.4375 0.625 0
0.4375 0.5625 0
0.46875 0.5625 0
0.4375 0.59375 0
0.46875 0.59375 0
0.46875 0.5625 0
0.5 0.5625 0
0.46875 0.59375 0
0.5 0.59375 0
0.4375 0.59375 0
0.46875 0.59375 0
0.4375 0.625 0
0.46875 0.625 0
0.46875 0.59375 0
0.5 0.59375 0
0.46875 0.625 0
0.5 0.625 0
0.25 0.625 0
0.28125 0.625 0
0.25 0.65625 0
0.28125 0.65625 0
0.28125 0.625 0
0.3125 0.625 0
0.28125 0.65625 0
0.3125 0.65625 0
0.25 0.65625 0
0.28125 0.65625 0
0.25 0.6875 0
0.28125 0.6875 0
0.28125 0.65625 0
0.3125 0.65625 0
0.28125 0.6875 0
0.3125 0.6875 0
0.3125 0.625 0
0.34375 0.625 0
0.3125 0.65625 0
0.34375 0.65625 0
0.34375 0.625 0
0.375 0.625 0
0.34375 0.65625 0
0.375 0.65625 0
0.3125 0.65625 0
0.34375 0.65625 0
0.3125 0.6875 0
0.34375 0.6875 0
0.34375 0.65625 0
0.375 0.65625 0
0.34375 0.6875 0
0.375 0.6875 0
0.25 0.6875 0
0.28125 0.6875 0
0.25 0.71875 0
0.28125 0.71875 0
0.28125 0.6875 0
0.3125 0.6875 0
0.28125 0.71875 0
0.3125 0.71875 0
0.25 0.71875 0
0.28125 0.71875 0
0.25 0.75 0
0.28125 0.75 0
0.28125 0.71875 0
0.3125 0.71875 0
0.28125 0.75 0
0.3125 0.75 0
0.3125 0.6875 0
0.34375 0.6875 0
0.3125 0.71875 0
0.34375 0.71875 0
0.34375 0.6875 0
0.375 0.6875 0
0.34375 0.71875 0
0.375 0.71875 0
0.3125 0.71875 0
0.34375 0.71875 0
0.3125 0.75 0
0.34375 0.75 0
0.34375 0.71875 0
0.375 0.71875 0
0.34375 0.75 0
0.375 0.75 0
0.375 0.625 0
0.40625 0.625 0
0.375 0.65625 0
0.40625 0.65625 0
0.40625 0.625 0
0.4375 0.625 0
0.40625 0.65625 0
0.4375 0.65625 0
0.375 0.65625 0
0.40625 0.65625 0
0.375 0.6875 0
0.40625 0.6875 0
0.40625 0.65625 0
0.4375 0.65625 0
0.40625 0.6875 0
0.4375 0.6875 0
0.4375 0.625 0
0.46875 0.625 0
0.4375 0.65625 0
0.46875 0.65625 0
0.46875 0.625 0
0.5 0.625 0
0.46875 0.65625 0
0.5 0.65625 0
0.4375 0.65625 0
0.46875 0.65625 0
0.4375 0.6875 0
0.46875 0.6875 0
0.46875 0.65625 0
0.5 0.65625 0
0.46875 0.6875 0
0.5 0.6875 0
0.375 0.6875 0
0.40625 0.6875 0
0.375 0.71875 0
0.40625 0.71875 0
0.40625 0.6875 0
0.4375 0.6875 0
0.40625 0.71875 0
0.4375 0.71875 0
0.375 0.71875 0
0.40625 0.71875 0
0.375 0.75 0
0.40625 0.75 0
0.40625 0.71875 0
0.4375 0.71875 0
0.40625 0.75 0
0.4375 0.75 0
0.4375 0.6875 0
0.46875 0.6875 0
0.4375 0.71875 0
0.46875 0.71875 0
0.46875 0.6875 0
0.5 0.6875 0
0.46875 0.71875 0
0.5 0.71875 0
0.4375 0.71875 0
0.46875 0.71875 0
0.4375 0.75 0
0.46875 0.75 0
0.46875 0.71875 0
0.5 0.71875 0
0.46875 0.75 0
0.5 0.75 0
0 0.75 0
0.03125 0.75 0
0 0.78125 0
0.03125 0.78125 0
0.03125 0.75 0
0.0625 0.75 0
0.03125 0.78125 0
0.0625 0.78125 0
0 0.78125 0
0.03125 0.78125 0
0 0.8125 0
0.03125 0.8125 0
0.03125 0.78125 0
0.0625 0.78125 0
0.03125 0.8125 0
0.0625 0.8125 0
0.0625 0.75 0
0.09375 0.75 0
0.0625 0.78125 0
0.09375 0.78125 0
0.09375 0.75 0
0.125 0.75 0
0.09375 0.78125 0
0.125 0.78125 0
0.0625 0.78125 0
0.09375 0.78125 0
0.0625 0.8125 0
0.09375 0.8125 0
0.09375 0.78125 0
0.125 0.78125 0
0.09375 0.8125 0
0.125 0.8125 0
0 0.8125 0
0.03125 0.8125 0
0 0.84375 0
0.03125 0.84375 0
0.03125 0.8125 0
0.0625 0.8125 0
0.03125 0.84375 0
0.0625 0.84375 0
0 0.84375 0
0.03125 0.84375 0
0 0.875 0
0.03125 0.875 0
0.03125 0.84375 0
0.0625 0.84375 0
0.03125 0.875 0
0.0625 0.875 0
0.0625 0.8125 0
0.09375 0.8125 0
0.0625 0.84375 0
0.09375 0.84375 0
0.09375 0.8125 0
0.125 0.8125 0
0.09375 0.84375 0
0.125 0.84375 0
0.0625 0.84375 0
0.09375 0.84375 0
0.0625 0.875 0
0.09375 0.875 0
0.09375 0.84375 0
0.125 0.84375 0
0.09375 0.875 0
0.125 0.875 0
0.125 0.75 0
0.15625 0.75 0
0.125 0.78125 0
0.15625 0.78125 0
0.15625 0.75 0
0.1875 0.75 0
0.15625 0.78125 0
0.1875 0.78125 0
0.125 0.78125 0
0.15625 0.78125 0
0.125 0.8125 0
0.15625 0.8125 0
0.15625 0.78125 0
0.1875 0.78125 0
0.15625 0.8125 0
0.1875 0.8125 0
0.1875 0.75 0
0.21875 0.75 0
0.1875 0.78125 0
0.21875 0.78125 0
0.21875 0.75 0
0.25 0.75 0
0.21875 0.78125 0
0.25 0.78125 0
0.1875 0.78125 0
0.21875 0.78125 0
0.1875 0.8125 0
0.21875 0.8125 0
0.21875 0.78125 0
0.25 0.78125 0
0.21875 0.8125 0
0.25 0.8125 0
0.125 0.8125 0
0.15625 0.8125 0
0.125 0.84375 0
0.15625 0.84375 0
0.15625 0.8125 0
[...]
POINT_DATA 4096
SCALARS State_InstatPDEProblemContainer_0 double 1
LOOKUP_TABLE default
-0.000550785 -0.000550746 -0.000589321 -0.000589324 -0.000550746 -0.000550701 -0.000589324 -0.00058941 -0.000589321 -0.000589324 -0.000627701 -0.000627745 -0.000589324 -0.00058941 -0.000627745 -0.000627953 -0.000550701 -0.000550652 -0.00058941 -0.000589582 -0.000550652 -0.000550597 -0.000589582 -0.00058985 -0.00058941 -0.000589582 -0.000627953 -0.000628333 -0.000589582 -0.00058985 -0.000628333 -0.000628901 -0.000627701 -0.000627745 -0.000665771 -0.000665851 -0.000627745 -0.000627953 -0.000665851 -0.000666165 -0.000665771 -0.000665851 -0.00070339 -0.000703499 -0.000665851 -0.000666165 -0.000703499 -0.000703899 -0.000627953 -0.000628333 -0.000666165 -0.000666725 -0.000628333 -0.000628901 -0.000666725 -0.000667552 -0.000666165 -0.000666725 -0.000703899 -0.000704601 -0.000666725 -0.000667552 -0.000704601 -0.000705627 -0.000550597 -0.000550535 -0.00058985 -0.000590225 -0.000550535 -0.000550465 -0.000590225 -0.000590727 -0.00058985 -0.000590225 -0.000628901 -0.000629682 -0.000590225 -0.000590727 -0.000629682 -0.000630711 -0.000550465 -0.000550386 -0.000590727 -0.000591386 -0.000550386 -0.000550296 -0.000591386 -0.000592243 -0.000590727 -0.000591386 -0.000630711 -0.00063204 -0.000591386 -0.000592243 -0.00063204 -0.000633743 -0.000628901 -0.000629682 -0.000667552 -0.000668675 -0.000629682 -0.000630711 -0.000668675 -0.000670141 -0.000667552 -0.000668675 -0.000705627 -0.000707011 -0.000668675 -0.000670141 -0.000707011 -0.000708796 -0.000630711 -0.00063204 -0.000670141 -0.000672011 -0.00063204 -0.000633743 -0.000672011 -0.000674374 -0.000670141 -0.000672011 -0.000708796 -0.000711046 -0.000672011 -0.000674374 -0.000711046 -0.000713841 -0.00070339 -0.000703499 -0.00074044 -0.00074057 -0.000703499 -0.000703899 -0.00074057 -0.00074103 -0.00074044 -0.00074057 -0.000776825 -0.000776969 -0.00074057 -0.00074103 -0.000776969 -0.000777464 -0.000703899 -0.000704601 -0.00074103 -0.000741831 -0.000704601 -0.000705627 -0.000741831 -0.000742993 -0.00074103 -0.000741831 -0.000777464 -0.000778319 -0.000741831 -0.000742993 -0.000778319 -0.00077955 -0.000776825 -0.000776969 -0.000812477 -0.000812627 -0.000776969 -0.000777464 -0.000812627 -0.000813132 -0.000812477 -0.000812627 -0.000847354 -0.000847501 -0.000812627 -0.000813132 -0.000847501 -0.000847997 -0.000777464 -0.000778319 -0.000813132 -0.000814001 -0.000778319 -0.00077955 -0.000814001 -0.000815242 -0.000813132 -0.000814001 -0.000847997 -0.000848843 -0.000814001 -0.000815242 -0.000848843 -0.000850045 -0.000705627 -0.000707011 -0.000742993 -0.000744544 -0.000707011 -0.000708796 -0.000744544 -0.000746524 -0.000742993 -0.000744544 -0.00077955 -0.000781179 -0.000744544 -0.000746524 -0.000781179 -0.000783235 -0.000708796 -0.000711046 -0.000746524 -0.000748983 -0.000711046 -0.000713841 -0.000748983 -0.000751983 -0.000746524 -0.000748983 -0.000783235 -0.00078575 -0.000748983 -0.000751983 -0.00078575 -0.000788762 -0.00077955 -0.000781179 -0.000815242 -0.00081687 -0.000781179 -0.000783235 -0.00081687 -0.0008189 -0.000815242 -0.00081687 -0.000850045 -0.000851606 -0.00081687 -0.0008189 -0.000851606 -0.000853531 -0.000783235 -0.00078575 -0.0008189 -0.000821347 -0.00078575 -0.000788762 -0.000821347 -0.000824223 -0.0008189 -0.000821347 -0.000853531 -0.000855818 -0.000821347 -0.000824223 -0.000855818 -0.00085846 -0.000550296 -0.000550192 -0.000592243 -0.000593361 -0.000550192 -0.000550071 -0.000593361 -0.00059484 -0.000592243 -0.000593361 -0.000633743 -0.000635929 -0.000593361 -0.00059484 -0.000635929 -0.00063876 -0.000550071 -0.000549928 -0.00059484 -0.000596839 -0.000549928 -0.000549752 -0.000596839 -0.000599636 -0.00059484 -0.000596839 -0.00063876 -0.000642484 -0.000596839 -0.000599636 -0.000642484 -0.000647487 -0.000633743 -0.000635929 -0.000674374 -0.000677352 -0.000635929 -0.00063876 -0.000677352 -0.000681112 -0.000674374 -0.000677352 -0.000713841 -0.000717286 -0.000677352 -0.000681112 -0.000717286 -0.000721512 -0.00063876 -0.000642484 -0.000681112 -0.000685885 -0.000642484 -0.000647487 -0.000685885 -0.000691979 -0.000681112 -0.000685885 -0.000721512 -0.00072667 -0.000685885 -0.000691979 -0.00072667 -0.000732905 -0.000549752 -0.000549524 -0.000599636 -0.000603751 -0.000549524 -0.000549202 -0.000603751 -0.000610303 -0.000599636 -0.000603751 -0.000647487 -0.000654397 -0.000603751 -0.000610303 -0.000654397 -0.000664154 -0.000549202 -0.000548616 -0.000610303 -0.000621858 -0.000548616 -0.000547806 -0.000621858 -0.000647075 -0.000610303 -0.000621858 -0.000664154 -0.000678175 -0.000621858 -0.000647075 -0.000678175 -0.000692959 -0.000647487 -0.000654397 -0.000691979 -0.000699748 -0.000654397 -0.000664154 -0.000699748 -0.000709484 -0.000691979 -0.000699748 -0.000732905 -0.000740285 -0.000699748 -0.000709484 -0.000740285 -0.000748588 -0.000664154 -0.000678175 -0.000709484 -0.000720458 -0.000678175 -0.000692959 -0.000720458 -0.000731721 -0.000709484 -0.000720458 -0.000748588 -0.000757299 -0.000720458 -0.000731721 -0.000757299 -0.000765672 -0.000713841 -0.000717286 -0.000751983 -0.000755595 -0.000717286 -0.000721512 -0.000755595 -0.000759894 -0.000751983 -0.000755595 -0.000788762 -0.000792304 -0.000755595 -0.000759894 -0.000792304 -0.000796397 -0.000721512 -0.00072667 -0.000759894 -0.00076494 -0.00072667 -0.000732905 -0.00076494 -0.000770742 -0.000759894 -0.00076494 -0.000796397 -0.000801031 -0.00076494 -0.000770742 -0.000801031 -0.000806138 -0.000788762 -0.000792304 -0.000824223 -0.00082753 -0.000792304 -0.000796397 -0.00082753 -0.000831249 -0.000824223 -0.00082753 -0.00085846 -0.000861433 -0.00082753 -0.000831249 -0.000861433 -0.000864697 -0.000796397 -0.000801031 -0.000831249 -0.000835329 -0.000801031 -0.000806138 -0.000835329 -0.000839672 -0.000831249 -0.000835329 -0.000864697 -0.000868179 -0.000835329 -0.000839672 -0.000868179 -0.000871778 -0.000732905 -0.000740285 -0.000770742 -0.000777194 -0.000740285 -0.000748588 -0.000777194 -0.000784032 -0.000770742 -0.000777194 -0.000806138 -0.000811567 -0.000777194 -0.000784032 -0.000811567 -0.000817074 -0.000748588 -0.000757299 -0.000784032 -0.000790835 -0.000757299 -0.000765672 -0.000790835 -0.000797236 -0.000784032 -0.000790835 -0.000817074 -0.000822381 -0.000790835 -0.000797236 -0.000822381 -0.000827275 -0.000806138 -0.000811567 -0.000839672 -0.000844126 -0.000811567 -0.000817074 -0.000844126 -0.0008485 -0.000839672 -0.000844126 -0.000871778 -0.000875361 -0.000844126 -0.0008485 -0.000875361 -0.000878785 -0.000817074 -0.000822381 -0.0008485 -0.000852608 -0.000822381 -0.000827275 -0.000852608 -0.000856327 -0.0008485 -0.000852608 -0.000878785 -0.000881922 -0.000852608 -0.000856327 -0.000881922 -0.000884704 -0.000847354 -0.000847501 -0.000881436 -0.000881575 -0.000847501 -0.000847997 -0.000881575 -0.000882043 -0.000881436 -0.000881575 -0.000914725 -0.000914852 -0.000881575 -0.000882043 -0.000914852 -0.000915278 -0.000847997 -0.000848843 -0.000882043 -0.000882838 -0.000848843 -0.000850045 -0.000882838 -0.00088396 -0.000882043 -0.000882838 -0.000915278 -0.000916 -0.000882838 -0.00088396 -0.000916 -0.000917013 -0.000914725 -0.000914852 -0.000947241 -0.000947352 -0.000914852 -0.000915278 -0.000947352 -0.000947726 -0.000947241 -0.000947352 -0.000979023 -0.000979115 -0.000947352 -0.000947726 -0.000979115 -0.000979428 -0.000915278 -0.000916 -0.000947726 -0.000948358 -0.000916 -0.000917013 -0.000948358 -0.000949241 -0.000947726 -0.000948358 -0.000979428 -0.000979957 -0.000948358 -0.000949241 -0.000979957 -0.000980694 -0.000850045 -0.000851606 -0.00088396 -0.000885406 -0.000851606 -0.000853531 -0.000885406 -0.000887169 -0.00088396 -0.000885406 -0.000917013 -0.000918308 -0.000885406 -0.000887169 -0.000918308 -0.000919872 -0.000853531 -0.000855818 -0.000887169 -0.000889236 -0.000855818 -0.00085846 -0.000889236 -0.000891584 -0.000887169 -0.000889236 -0.000919872 -0.000921682 -0.000889236 -0.000891584 -0.000921682 -0.000923707 -0.000917013 -0.000918308 -0.000949241 -0.000950362 -0.000918308 -0.000919872 -0.000950362 -0.000951703 -0.000949241 -0.000950362 -0.000980694 -0.000981625 -0.000950362 -0.000951703 -0.000981625 -0.000982729 -0.000919872 -0.000921682 -0.000951703 -0.000953238 -0.000921682 -0.000923707 -0.000953238 -0.000954931 -0.000951703 -0.000953238 -0.000982729 -0.00098398 -0.000953238 -0.000954931 -0.00098398 -0.000985343 -0.000979023 -0.000979115 -0.00101012 -0.00101019 -0.000979115 -0.000979428 -0.00101019 -0.00101044 -0.00101012 -0.00101019 -0.0010406 -0.00104064 -0.00101019 -0.00101044 -0.00104064 -0.00104081 -0.000979428 -0.000979957 -0.00101044 -0.00101085 -0.000979957 -0.000980694 -0.00101085 -0.00101143 -0.00101044 -0.00101085 -0.00104081 -0.0010411 -0.00101085 -0.00101143 -0.0010411 -0.00104151 -0.0010406 -0.00104064 -0.00107053 -0.00107055 -0.00104064 -0.00104081 -0.00107055 -0.00107064 -0.00107053 -0.00107055 -0.0011 -0.0011 -0.00107055 -0.00107064 -0.0011 -0.0011 -0.00104081 -0.0010411 -0.00107064 -0.00107079 -0.0010411 -0.00104151 -0.00107079 -0.00107101 -0.00107064 -0.00107079 -0.0011 -0.0011 -0.00107079 -0.00107101 -0.0011 -0.0011 -0.000980694 -0.000981625 -0.00101143 -0.00101216 -0.000981625 -0.000982729 -0.00101216 -0.00101301 -0.00101143 -0.00101216 -0.00104151 -0.00104202 -0.00101216 -0.00101301 -0.00104202 -0.00104261 -0.000982729 -0.00098398 -0.00101301 -0.00101397 -0.00098398 -0.000985343 -0.00101397 -0.00101501 -0.00101301 -0.00101397 -0.00104261 -0.00104328 -0.00101397 -0.00101501 -0.00104328 -0.00104399 -0.00104151 -0.00104202 -0.00107101 -0.00107128 -0.00104202 -0.00104261 -0.00107128 -0.00107159 -0.00107101 -0.00107128 -0.0011 -0.0011 -0.00107128 -0.00107159 -0.0011 -0.0011 -0.00104261 -0.00104328 -0.00107159 -0.00107194 -0.00104328 -0.00104399 -0.00107194 -0.00107231 -0.00107159 -0.00107194 -0.0011 -0.0011 -0.00107194 -0.00107231 -0.0011 -0.0011 -0.00085846 -0.000861433 -0.000891584 -0.000894176 -0.000861433 -0.000864697 -0.000894176 -0.000896958 -0.000891584 -0.000894176 -0.000923707 -0.000925903 -0.000894176 -0.000896958 -0.000925903 -0.000928214 -0.000864697 -0.000868179 -0.000896958 -0.000899856 -0.000868179 -0.000871778 -0.000899856 -0.000902772 -0.000896958 -0.000899856 -0.000928214 -0.000930566 -0.000899856 -0.000902772 -0.000930566 -0.000932876 -0.000923707 -0.000925903 -0.000954931 -0.000956738 -0.000925903 -0.000928214 -0.000956738 -0.000958603 -0.000954931 -0.000956738 -0.000985343 -0.000986776 -0.000956738 -0.000958603 -0.000986776 -0.000988229 -0.000928214 -0.000930566 -0.000958603 -0.000960462 -0.000930566 -0.000932876 -0.000960462 -0.000962243 -0.000958603 -0.000960462 -0.000988229 -0.000989646 -0.000960462 -0.000962243 -0.000989646 -0.00099097 -0.000871778 -0.000875361 -0.000902772 -0.000905599 -0.000875361 -0.000878785 -0.000905599 -0.00090823 -0.000902772 -0.000905599 -0.000932876 -0.000935057 -0.000905599 -0.00090823 -0.000935057 -0.00093703 -0.000878785 -0.000881922 -0.00090823 -0.000910578 -0.000881922 -0.000884704 -0.000910578 -0.000912604 -0.00090823 -0.000910578 -0.00093703 -0.000938735 -0.000910578 -0.000912604 -0.000938735 -0.000940151 -0.000932876 -0.000935057 -0.000962243 -0.000963878 -0.000935057 -0.00093703 -0.000963878 -0.000965308 -0.000962243 -0.000963878 -0.00099097 -0.000992148 -0.000963878 -0.000965308 -0.000992148 -0.000993136 -0.00093703 -0.000938735 -0.000965308 -0.000966493 -0.000938735 -0.000940151 -0.000966493 -0.000967422 -0.000965308 -0.000966493 -0.000993136 -0.000993907 -0.000966493 -0.000967422 -0.000993907 -0.000994456 -0.000985343 -0.000986776 -0.00101501 -0.00101609 -0.000986776 -0.000988229 -0.00101609 -0.00101716 -0.00101501 -0.00101609 -0.00104399 -0.00104472 -0.00101609 -0.00101716 -0.00104472 -0.00104543 -0.000988229 -0.000989646 -0.00101716 -0.00101818 -0.000989646 -0.00099097 -0.00101818 -0.00101911 -0.00101716 -0.00101818 -0.00104543 -0.0010461 -0.00101818 -0.00101911 -0.0010461 -0.00104669 -0.00104399 -0.00104472 -0.00107231 -0.00107269 -0.00104472 -0.00104543 -0.00107269 -0.00107305 -0.00107231 -0.00107269 -0.0011 -0.0011 -0.00107269 -0.00107305 -0.0011 -0.0011 -0.00104543 -0.0010461 -0.00107305 -0.00107338 -0.0010461 -0.00104669 -0.00107338 -0.00107367 -0.00107305 -0.00107338 -0.0011 -0.0011 -0.00107338 -0.00107367 -0.0011 -0.0011 -0.00099097 -0.000992148 -0.00101911 -0.00101991 -0.000992148 -0.000993136 -0.00101991 -0.00102054 -0.00101911 -0.00101991 -0.00104669 -0.00104717 -0.00101991 -0.00102054 -0.00104717 -0.00104753 -0.000993136 -0.000993907 -0.00102054 -0.001021 -0.000993907 -0.000994456 -0.001021 -0.00102126 -0.00102054 -0.001021 -0.00104753 -0.00104775 -0.001021 -0.00102126 -0.00104775 -0.00104783 -0.00104669 -0.00104717 -0.00107367 -0.00107389 -0.00104717 -0.00104753 -0.00107389 -0.00107404 -0.00107367 -0.00107389 -0.0011 -0.0011 -0.00107389 -0.00107404 -0.0011 -0.0011 -0.00104753 -0.00104775 -0.00107404 -0.00107411 -0.00104775 -0.00104783 -0.00107411 -0.0010741 -0.00107404 -0.00107411 -0.0011 -0.0011 -0.00107411 -0.0010741 -0.0011 -0.0011 -0.000547806 -0.00063169 -0.000647075 -0.000667381 -0.00063169 -0.000681498 -0.000667381 -0.000695338 -0.000647075 -0.000667381 -0.000692959 -0.00070834 -0.000667381 -0.000695338 -0.00070834 -0.000723144 -0.000681498 -0.000715353 -0.000695338 -0.000721687 -0.000715353 -0.000740978 -0.000721687 -0.000744205 -0.000695338 -0.000721687 -0.000723144 -0.000740093 -0.000721687 -0.000744205 -0.000740093 -0.000756952 -0.000692959 -0.00070834 -0.000731721 -0.000742126 -0.00070834 -0.000723144 -0.000742126 -0.000752598 -0.000731721 -0.000742126 -0.000765672 -0.000773478 -0.000742126 -0.000752598 -0.000773478 -0.000781001 -0.000723144 -0.000740093 -0.000752598 -0.000763707 -0.000740093 -0.000756952 -0.000763707 -0.000775581 -0.000752598 -0.000763707 -0.000781001 -0.000788867 -0.000763707 -0.000775581 -0.000788867 -0.00079724 -0.000740978 -0.000761397 -0.000744205 -0.000763151 -0.000761397 -0.000778105 -0.000763151 -0.000779098 -0.000744205 -0.000763151 -0.000756952 -0.000772483 -0.000763151 -0.000779098 -0.000772483 -0.000786295 -0.000778105 -0.000791949 -0.000779098 -0.000792544 -0.000791949 -0.000803471 -0.000792544 -0.000803869 -0.000779098 -0.000792544 -0.000786295 -0.000798356 -0.000792544 -0.000803869 -0.000798356 -0.000808758 -0.000756952 -0.000772483 -0.000775581 -0.000787391 -0.000772483 -0.000786295 -0.000787391 -0.000798527 -0.000775581 -0.000787391 -0.00079724 -0.000805917 -0.000787391 -0.000798527 -0.000805917 -0.000814483 -0.000786295 -0.000798356 -0.000798527 -0.00080867 -0.000798356 -0.000808758 -0.00080867 -0.000817687 -0.000798527 -0.00080867 -0.000814483 -0.000822601 -0.00080867 -0.000817687 -0.000822601 -0.000830049 -0.000765672 -0.000773478 -0.000797236 -0.000803113 -0.000773478 -0.000781001 -0.000803113 -0.000808708 -0.000797236 -0.000803113 -0.000827275 -0.000831722 -0.000803113 -0.000808708 -0.000831722 -0.000835879 -0.000781001 -0.000788867 -0.000808708 -0.000814381 -0.000788867 -0.00079724 -0.000814381 -0.000820373 -0.000808708 -0.000814381 -0.000835879 -0.000840001 -0.000814381 -0.000820373 -0.000840001 -0.000844283 -0.000827275 -0.000831722 -0.000856327 -0.000859655 -0.000831722 -0.000835879 -0.000859655 -0.000862707 -0.000856327 -0.000859655 -0.000884704 -0.000887141 -0.000859655 -0.000862707 -0.000887141 -0.000889319 -0.000835879 -0.000840001 -0.000862707 -0.000865661 -0.000840001 -0.000844283 -0.000865661 -0.000868677 -0.000862707 -0.000865661 -0.000889319 -0.000891371 -0.000865661 -0.000868677 -0.000891371 -0.000893423 -0.00079724 -0.000805917 -0.000820373 -0.000826661 -0.000805917 -0.000814483 -0.000826661 -0.000833055 -0.000820373 -0.000826661 -0.000844283 -0.000848788 -0.000826661 -0.000833055 -0.000848788 -0.000853446 -0.000814483 -0.000822601 -0.000833055 -0.00083931 -0.000822601 -0.000830049 -0.00083931 -0.000845218 -0.000833055 -0.00083931 -0.000853446 -0.000858113 -0.00083931 -0.000845218 -0.000858113 -0.000862631 -0.000844283 -0.000848788 -0.000868677 -0.000871838 -0.000848788 -0.000853446 -0.000871838 -0.000875138 -0.000868677 -0.000871838 -0.000893423 -0.000895559 -0.000871838 -0.000875138 -0.000895559 -0.000897805 -0.000853446 -0.000858113 -0.000875138 -0.000878506 -0.000858113 -0.000862631 -0.000878506 -0.000881835 -0.000875138 -0.000878506 -0.000897805 -0.000900133 -0.000878506 -0.000881835 -0.000900133 -0.000902482 -0.000803471 -0.000813042 -0.000803869 -0.000813358 -0.000813042 -0.00082093 -0.000813358 -0.000821232 -0.000803869 -0.000813358 -0.000808758 -0.000817623 -0.000813358 -0.000821232 -0.000817623 -0.000825069 -0.00082093 -0.000827332 -0.000821232 -0.000827655 -0.000827332 -0.000832395 -0.000827655 -0.000832756 -0.000821232 -0.000827655 -0.000825069 -0.000831201 -0.000827655 -0.000832756 -0.000831201 -0.000836104 -0.000808758 -0.000817623 -0.000817687 -0.000825544 -0.000817623 -0.000825069 -0.000825544 -0.000832254 -0.000817687 -0.000825544 -0.000830049 -0.0008367 -0.000825544 -0.000832254 -0.0008367 -0.000842487 -0.000825069 -0.000831201 -0.000832254 -0.000837847 -0.000831201 -0.000836104 -0.000837847 -0.000842362 -0.000832254 -0.000837847 -0.000842487 -0.000847382 -0.000837847 -0.000842362 -0.000847382 -0.000851376 -0.000832395 -0.00083623 -0.000832756 -0.000836632 -0.00083623 -0.000838915 -0.000836632 -0.000839353 -0.000832756 -0.000836632 -0.000836104 -0.000839848 -0.000836632 -0.000839353 -0.000839848 -0.000842486 -0.000838915 -0.000840505 -0.000839353 -0.000840966 -0.000840505 -0.000841032 -0.000840966 -0.000841501 -0.000839353 -0.000840966 -0.000842486 -0.000844054 -0.000840966 -0.000841501 -0.000844054 -0.000844574 -0.000836104 -0.000839848 -0.000842362 -0.000845834 -0.000839848 -0.000842486 -0.000845834 -0.000848291 -0.000842362 -0.000845834 -0.000851376 -0.000854473 -0.000845834 -0.000848291 -0.000854473 -0.000856677 -0.000842486 -0.000844054 -0.000848291 -0.000849756 -0.000844054 -0.000844574 -0.000849756 -0.000850242 -0.000848291 -0.000849756 -0.000856677 -0.000857996 -0.000849756 -0.000850242 -0.000857996 -0.000858433 -0.000830049 -0.0008367 -0.000845218 -0.000850621 -0.0008367 -0.000842487 -0.000850621 -0.000855417 -0.000845218 -0.000850621 -0.000862631 -0.000866858 -0.000850621 -0.000855417 -0.000866858 -0.000870682 -0.000842487 -0.000847382 -0.000855417 -0.000859536 -0.000847382 -0.000851376 -0.000859536 -0.000862938 -0.000855417 -0.000859536 -0.000870682 -0.000874019 -0.000859536 -0.000862938 -0.000874019 -0.00087681 -0.000862631 -0.000866858 -0.000881835 -0.000885016 -0.000866858 -0.000870682 -0.000885016 -0.000887948 -0.000881835 -0.000885016 -0.000902482 -0.000904772 -0.000885016 -0.000887948 -0.000904772 -0.000906924 -0.000870682 -0.000874019 -0.000887948 -0.000890548 -0.000874019 -0.00087681 -0.000890548 -0.000892751 -0.000887948 -0.000890548 -0.000906924 -0.000908864 -0.000890548 -0.000892751 -0.000908864 -0.00091053 -0.000851376 -0.000854473 -0.000862938 -0.000865599 -0.000854473 -0.000856677 -0.000865599 -0.000867505 -0.000862938 -0.000865599 -0.00087681 -0.000879014 -0.000865599 -0.000867505 -0.000879014 -0.000880604 -0.000856677 -0.000857996 -0.000867505 -0.00086865 -0.000857996 -0.000858433 -0.00086865 -0.00086903 -0.000867505 -0.00086865 -0.000880604 -0.000881563 -0.00086865 -0.00086903 -0.000881563 -0.000881881 -0.00087681 -0.000879014 -0.000892751 -0.000894509 -0.000879014 -0.000880604 -0.000894509 -0.000895785 -0.000892751 -0.000894509 -0.00091053 -0.000911874 -0.000894509 -0.000895785 -0.000911874 -0.000912858 -0.000880604 -0.000881563 -0.000895785 -0.000896558 -0.000881563 -0.000881881 -0.000896558 -0.000896814 -0.000895785 -0.000896558 -0.000912858 -0.000913456 -0.000896558 -0.000896814 -0.000913456 -0.000913653 -0.000884704 -0.000887141 -0.000912604 -0.000914324 -0.000887141 -0.000889319 -0.000914324 -0.000915806 -0.000912604 -0.000914324 -0.000940151 -0.000941296 -0.000914324 -0.000915806 -0.000941296 -0.000942225 -0.000889319 -0.000891371 -0.000915806 -0.000917151 -0.000891371 -0.000893423 -0.000917151 -0.00091846 -0.000915806 -0.000917151 -0.000942225 -0.000943017 -0.000917151 -0.00091846 -0.000943017 -0.000943755 -0.000940151 -0.000941296 -0.000967422 -0.000968113 