# vtk DataFile Version 3.0
#This file was generated by the deal.II library on 2018/7/10 at 10:47:01
ASCII
DATASET UNSTRUCTURED_GRID

POINTS 4096 double
0 0.5 0
0.03125 0.5 0
0 0.53125 0
0.03125 0.53125 0
0.03125 0.5 0
0.0625 0.5 0
0.03125 0.53125 0
0.0625 0.53125 0
0 0.53125 0
0.03125 0.53125 0
0 0.5625 0
0.03125 0.5625 0
0.03125 0.53125 0
0.0625 0.53125 0
0.03125 0.5625 0
0.0625 0.5625 0
0.0625 0.5 0
0.09375 0.5 0
0.0625 0.53125 0
0.09375 0.53125 0
0.09375 0.5 0
0.125 0.5 0
0.09375 0.53125 0
0.125 0.53125 0
0.0625 0.53125 0
0.09375 0.53125 0
0.0625 0.5625 0
0.09375 0.5625 0
0.09375 0.53125 0
0.125 0.53125 0
0.09375 0.5625 0
0.125 0.5625 0
0 0.5625 0
0.03125 0.5625 0
0 0.59375 0
0.03125 0.59375 0
0.03125 0.5625 0
0.0625 0.5625 0
0.03125 0.59375 0
0.0625 0.59375 0
0 0.59375 0
0.03125 0.59375 0
0 0.625 0
0.03125 0.625 0
0.03125 0.59375 0
0.0625 0.59375 0
0.03125 0.625 0
0.0625 0.625 0
0.0625 0.5625 0
0.09375 0.5625 0
0.0625 0.59375 0
0.09375 0.59375 0
0.09375 0.5625 0
0.125 0.5625 0
0.09375 0.59375 0
0.125 0.59375 0
0.0625 0.59375 0
0.09375 0.59375 0
0.0625 0.625 0
0.09375 0.625 0
0.09375 0.59375 0
0.125 0.59375 0
0.09375 0.625 0
0.125 0.625 0
0.125 0.5 0
0.15625 0.5 0
0.125 0.53125 0
0.15625 0.53125 0
0.15625 0.5 0
0.1875 0.5 0
0.15625 0.53125 0
0.1875 0.53125 0
0.125 0.53125 0
0.15625 0.53125 0
0.125 0.5625 0
0.15625 0.5625 0
0.15625 0.53125 0
0.1875 0.53125 0
0.15625 0.5625 0
0.1875 0.5625 0
0.1875 0.5 0
0.21875 0.5 0
0.1875 0.53125 0
0.21875 0.53125 0
0.21875 0.5 0
0.25 0.5 0
0.21875 0.53125 0
0.25 0.53125 0
0.1875 0.53125 0
0.21875 0.53125 0
0.1875 0.5625 0
0.21875 0.5625 0
0.21875 0.53125 0
0.25 0.53125 0
0.21875 0.5625 0
0.25 0.5625 0
0.125 0.5625 0
0.15625 0.5625 0
0.125 0.59375 0
0.15625 0.59375 0
0.15625 0.5625 0
0.1875 0.5625 0
0.15625 0.59375 0
0.1875 0.59375 0
0.125 0.59375 0
0.15625 0.59375 0
0.125 0.625 0
0.15625 0.625 0
0.15625 0.59375 0
0.1875 0.59375 0
0.15625 0.625 0
0.1875 0.625 0
0.1875 0.5625 0
0.21875 0.5625 0
0.1875 0.59375 0
0.21875 0.59375 0
0.21875 0.5625 0
0.25 0.5625 0
0.21875 0.59375 0
0.25 0.59375 0
0.1875 0.59375 0
0.21875 0.59375 0
0.1875 0.625 0
0.21875 0.625 0
0.21875 0.59375 0
0.25 0.59375 0
0.21875 0.625 0
0.25 0.625 0
0 0.625 0
0.03125 0.625 0
0 0.65625 0
0.03125 0.65625 0
0.03125 0.625 0
0.0625 0.625 0
0.03125 0.65625 0
0.0625 0.65625 0
0 0.65625 0
0.03125 0.65625 0
0 0.6875 0
0.03125 0.6875 0
0.03125 0.65625 0
0.0625 0.65625 0
0.03125 0.6875 0
0.0625 0.6875 0
0.0625 0.625 0
0.09375 0.625 0
0.0625 0.65625 0
0.09375 0.65625 0
0.09375 0.625 0
0.125 0.625 0
0.09375 0.65625 0
0.125 0.65625 0
0.0625 0.65625 0
0.09375 0.65625 0
0.0625 0.6875 0
0.09375 0.6875 0
0.09375 0.65625 0
0.125 0.65625 0
0.09375 0.6875 0
0.125 0.6875 0
0 0.6875 0
0.03125 0.6875 0
0 0.71875 0
0.03125 0.71875 0
0.03125 0.6875 0
0.0625 0.6875 0
0.03125 0.71875 0
0.0625 0.71875 0
0 0.71875 0
0.03125 0.71875 0
0 0.75 0
0.03125 0.75 0
0.03125 0.71875 0
0.0625 0.71875 0
0.03125 0.75 0
0.0625 0.75 0
0.0625 0.6875 0
0.09375 0.6875 0
0.0625 0.71875 0
0.09375 0.71875 0
0.09375 0.6875 0
0.125 0.6875 0
0.09375 0.71875 0
0.125 0.71875 0
0.0625 0.71875 0
0.09375 0.71875 0
0.0625 0.75 0
0.09375 0.75 0
0.09375 0.71875 0
0.125 0.71875 0
0.09375 0.75 0
0.125 0.75 0
0.125 0.625 0
0.15625 0.625 0
0.125 0.65625 0
0.15625 0.65625 0
0.15625 0.625 0
0.1875 0.625 0
0.15625 0.65625 0
0.1875 0.65625 0
0.125 0.65625 0
0.15625 0.65625 0
0.125 0.6875 0
0.15625 0.6875 0
0.15625 0.65625 0
0.1875 0.65625 0
0.15625 0.6875 0
0.1875 0.6875 0
0.1875 0.625 0
0.21875 0.625 0
0.1875 0.65625 0
0.21875 0.65625 0
0.21875 0.625 0
0.25 0.625 0
0.21875 0.65625 0
0.25 0.65625 0
0.1875 0.65625 0
0.21875 0.65625 0
0.1875 0.6875 0
0.21875 0.6875 0
0.21875 0.65625 0
0.25 0.65625 0
0.21875 0.6875 0
0.25 0.6875 0
0.125 0.6875 0
0.15625 0.6875 0
0.125 0.71875 0
0.15625 0.71875 0
0.15625 0.6875 0
0.1875 0.6875 0
0.15625 0.71875 0
0.1875 0.71875 0
0.125 0.71875 0
0.15625 0.71875 0
0.125 0.75 0
0.15625 0.75 0
0.15625 0.71875 0
0.1875 0.71875 0
0.15625 0.75 0
0.1875 0.75 0
0.1875 0.6875 0
0.21875 0.6875 0
0.1875 0.71875 0
0.21875 0.71875 0
0.21875 0.6875 0
0.25 0.6875 0
0.21875 0.71875 0
0.25 0.71875 0
0.1875 0.71875 0
0.21875 0.71875 0
0.1875 0.75 0
0.21875 0.75 0
0.21875 0.71875 0
0.25 0.71875 0
0.21875 0.75 0
0.25 0.75 0
0.25 0.5 0
0.28125 0.5 0
0.25 0.53125 0
0.28125 0.53125 0
0.28125 0.5 0
0.3125 0.5 0
0.28125 0.53125 0
0.3125 0.53125 0
0.25 0.53125 0
0.28125 0.53125 0
0.25 0.5625 0
0.28125 0.5625 0
0.28125 0.53125 0
0.3125 0.53125 0
0.28125 0.5625 0
0.3125 0.5625 0
0.3125 0.5 0
0.34375 0.5 0
0.3125 0.53125 0
0.34375 0.53125 0
0.34375 0.5 0
0.375 0.5 0
0.34375 0.53125 0
0.375 0.53125 0
0.3125 0.53125 0
0.34375 0.53125 0
0.3125 0.5625 0
0.34375 0.5625 0
0.34375 0.53125 0
0.375 0.53125 0
0.34375 0.5625 0
0.375 0.5625 0
0.25 0.5625 0
0.28125 0.5625 0
0.25 0.59375 0
0.28125 0.59375 0
0.28125 0.5625 0
0.3125 0.5625 0
0.28125 0.59375 0
0.3125 0.59375 0
0.25 0.59375 0
0.28125 0.59375 0
0.25 0.625 0
0.28125 0.625 0
0.28125 0.59375 0
0.3125 0.59375 0
0.28125 0.625 0
0.3125 0.625 0
0.3125 0.5625 0
0.34375 0.5625 0
0.3125 0.59375 0
0.34375 0.59375 0
0.34375 0.5625 0
0.375 0.5625 0
0.34375 0.59375 0
0.375 0.59375 0
0.3125 0.59375 0
0.34375 0.59375 0
0.3125 0.625 0
0.34375 0.625 0
0.34375 0.59375 0
0.375 0.59375 0
0.34375 0.625 0
0.375 0.625 0
0.375 0.5 0
0.40625 0.5 0
0.375 0.53125 0
0.40625 0.53125 0
0.40625 0.5 0
0.4375 0.5 0
0.40625 0.53125 0
0.4375 0.53125 0
0.375 0.53125 0
0.40625 0.53125 0
0.375 0.5625 0
0.40625 0.5625 0
0.40625 0.53125 0
0.4375 0.53125 0
0.40625 0.5625 0
0.4375 0.5625 0
0.4375 0.5 0
0.46875 0.5 0
0.4375 0.53125 0
0.46875 0.53125 0
0.46875 0.5 0
0.5 0.5 0
0.46875 0.53125 0
0.5 0.53125 0
0.4375 0.53125 0
0.46875 0.53125 0
0.4375 0.5625 0
0.46875 0.5625 0
0.46875 0.53125 0
0.5 0.53125 0
0.46875 0.5625 0
0.5 0.5625 0
0.375 0.5625 0
0.40625 0.5625 0
0.375 0.59375 0
0.40625 0.59375 0
0.40625 0.5625 0
0.4375 0.5625 0
0.40625 0.59375 0
0.4375 0.59375 0
0.375 0.59375 0
0.40625 0.59375 0
0.375 0.625 0
0.40625 0.625 0
0.40625 0.59375 0
0.4375 0.59375 0
0.40625 0.625 0
0.4375 0.625 0
0.4375 0.5625 0
0.46875 0.5625 0
0.4375 0.59375 0
0.46875 0.59375 0
0.46875 0.5625 0
0.5 0.5625 0
0.46875 0.59375 0
0.5 0.59375 0
0.4375 0.59375 0
0.46875 0.59375 0
0.4375 0.625 0
0.46875 0.625 0
0.46875 0.59375 0
0.5 0.59375 0
0.46875 0.625 0
0.5 0.625 0
0.25 0.625 0
0.28125 0.625 0
0.25 0.65625 0
0.28125 0.65625 0
0.28125 0.625 0
0.3125 0.625 0
0.28125 0.65625 0
0.3125 0.65625 0
0.25 0.65625 0
0.28125 0.65625 0
0.25 0.6875 0
0.28125 0.6875 0
0.28125 0.65625 0
0.3125 0.65625 0
0.28125 0.6875 0
0.3125 0.6875 0
0.3125 0.625 0
0.34375 0.625 0
0.3125 0.65625 0
0.34375 0.65625 0
0.34375 0.625 0
0.375 0.625 0
0.34375 0.65625 0
0.375 0.65625 0
0.3125 0.65625 0
0.34375 0.65625 0
0.3125 0.6875 0
0.34375 0.6875 0
0.34375 0.65625 0
0.375 0.65625 0
0.34375 0.6875 0
0.375 0.6875 0
0.25 0.6875 0
0.28125 0.6875 0
0.25 0.71875 0
0.28125 0.71875 0
0.28125 0.6875 0
0.3125 0.6875 0
0.28125 0.71875 0
0.3125 0.71875 0
0.25 0.71875 0
0.28125 0.71875 0
0.25 0.75 0
0.28125 0.75 0
0.28125 0.71875 0
0.3125 0.71875 0
0.28125 0.75 0
0.3125 0.75 0
0.3125 0.6875 0
0.34375 0.6875 0
0.3125 0.71875 0
0.34375 0.71875 0
0.34375 0.6875 0
0.375 0.6875 0
0.34375 0.71875 0
0.375 0.71875 0
0.3125 0.71875 0
0.34375 0.71875 0
0.3125 0.75 0
0.34375 0.75 0
0.34375 0.71875 0
0.375 0.71875 0
0.34375 0.75 0
0.375 0.75 0
0.375 0.625 0
0.40625 0.625 0
0.375 0.65625 0
0.40625 0.65625 0
0.40625 0.625 0
0.4375 0.625 0
0.40625 0.65625 0
0.4375 0.65625 0
0.375 0.65625 0
0.40625 0.65625 0
0.375 0.6875 0
0.40625 0.6875 0
0.40625 0.65625 0
0.4375 0.65625 0
0.40625 0.6875 0
0.4375 0.6875 0
0.4375 0.625 0
0.46875 0.625 0
0.4375 0.65625 0
0.46875 0.65625 0
0.46875 0.625 0
0.5 0.625 0
0.46875 0.65625 0
0.5 0.65625 0
0.4375 0.65625 0
0.46875 0.65625 0
0.4375 0.6875 0
0.46875 0.6875 0
0.46875 0.65625 0
0.5 0.65625 0
0.46875 0.6875 0
0.5 0.6875 0
0.375 0.6875 0
0.40625 0.6875 0
0.375 0.71875 0
0.40625 0.71875 0
0.40625 0.6875 0
0.4375 0.6875 0
0.40625 0.71875 0
0.4375 0.71875 0
0.375 0.71875 0
0.40625 0.71875 0
0.375 0.75 0
0.40625 0.75 0
0.40625 0.71875 0
0.4375 0.71875 0
0.40625 0.75 0
0.4375 0.75 0
0.4375 0.6875 0
0.46875 0.6875 0
0.4375 0.71875 0
0.46875 0.71875 0
0.46875 0.6875 0
0.5 0.6875 0
0.46875 0.71875 0
0.5 0.71875 0
0.4375 0.71875 0
0.46875 0.71875 0
0.4375 0.75 0
0.46875 0.75 0
0.46875 0.71875 0
0.5 0.71875 0
0.46875 0.75 0
0.5 0.75 0
0 0.75 0
0.03125 0.75 0
0 0.78125 0
0.03125 0.78125 0
0.03125 0.75 0
0.0625 0.75 0
0.03125 0.78125 0
0.0625 0.78125 0
0 0.78125 0
0.03125 0.78125 0
0 0.8125 0
0.03125 0.8125 0
0.03125 0.78125 0
0.0625 0.78125 0
0.03125 0.8125 0
0.0625 0.8125 0
0.0625 0.75 0
0.09375 0.75 0
0.0625 0.78125 0
0.09375 0.78125 0
0.09375 0.75 0
0.125 0.75 0
0.09375 0.78125 0
0.125 0.78125 0
0.0625 0.78125 0
0.09375 0.78125 0
0.0625 0.8125 0
0.09375 0.8125 0
0.09375 0.78125 0
0.125 0.78125 0
0.09375 0.8125 0
0.125 0.8125 0
0 0.8125 0
0.03125 0.8125 0
0 0.84375 0
0.03125 0.84375 0
0.03125 0.8125 0
0.0625 0.8125 0
0.03125 0.84375 0
0.0625 0.84375 0
0 0.84375 0
0.03125 0.84375 0
0 0.875 0
0.03125 0.875 0
0.03125 0.84375 0
0.0625 0.84375 0
0.03125 0.875 0
0.0625 0.875 0
0.0625 0.8125 0
0.09375 0.8125 0
0.0625 0.84375 0
0.09375 0.84375 0
0.09375 0.8125 0
0.125 0.8125 0
0.09375 0.84375 0
0.125 0.84375 0
0.0625 0.84375 0
0.09375 0.84375 0
0.0625 0.875 0
0.09375 0.875 0
0.09375 0.84375 0
0.125 0.84375 0
0.09375 0.875 0
0.125 0.875 0
0.125 0.75 0
0.15625 0.75 0
0.125 0.78125 0
0.15625 0.78125 0
0.15625 0.75 0
0.1875 0.75 0
0.15625 0.78125 0
0.1875 0.78125 0
0.125 0.78125 0
0.15625 0.78125 0
0.125 0.8125 0
0.15625 0.8125 0
0.15625 0.78125 0
0.1875 0.78125 0
0.15625 0.8125 0
0.1875 0.8125 0
0.1875 0.75 0
0.21875 0.75 0
0.1875 0.78125 0
0.21875 0.78125 0
0.21875 0.75 0
0.25 0.75 0
0.21875 0.78125 0
0.25 0.78125 0
0.1875 0.78125 0
0.21875 0.78125 0
0.1875 0.8125 0
0.21875 0.8125 0
0.21875 0.78125 0
0.25 0.78125 0
0.21875 0.8125 0
0.25 0.8125 0
0.125 0.8125 0
0.15625 0.8125 0
0.125 0.84375 0
0.15625 0.84375 0
0.15625 0.8125 0
[...]
POINT_DATA 4096
SCALARS State_InstatPDEProblemContainer_0 double 1
LOOKUP_TABLE default
-0.00166308 -0.00166245 -0.00177913 -0.00177864 -0.00166245 -0.00166187 -0.00177864 -0.00177845 -0.00177913 -0.00177864 -0.00189454 -0.00189419 -0.00177864 -0.00177845 -0.00189419 -0.00189438 -0.00166187 -0.00166131 -0.00177845 -0.00177858 -0.00166131 -0.00166078 -0.00177858 -0.00177904 -0.00177845 -0.00177858 -0.00189438 -0.00189515 -0.00177858 -0.00177904 -0.00189515 -0.00189652 -0.00189454 -0.00189419 -0.00200884 -0.00200861 -0.00189419 -0.00189438 -0.00200861 -0.00200915 -0.00200884 -0.00200861 -0.0021216 -0.00212149 -0.00200861 -0.00200915 -0.00212149 -0.00212229 -0.00189438 -0.00189515 -0.00200915 -0.00201046 -0.00189515 -0.00189652 -0.00201046 -0.00201262 -0.00200915 -0.00201046 -0.00212229 -0.00212404 -0.00201046 -0.00201262 -0.00212404 -0.00212679 -0.00166078 -0.00166028 -0.00177904 -0.00177987 -0.00166028 -0.00165979 -0.00177987 -0.00178113 -0.00177904 -0.00177987 -0.00189652 -0.00189858 -0.00177987 -0.00178113 -0.00189858 -0.00190143 -0.00165979 -0.00165931 -0.00178113 -0.0017829 -0.00165931 -0.00165884 -0.0017829 -0.00178531 -0.00178113 -0.0017829 -0.00190143 -0.00190522 -0.0017829 -0.00178531 -0.00190522 -0.00191018 -0.00189652 -0.00189858 -0.00201262 -0.0020157 -0.00189858 -0.00190143 -0.0020157 -0.00201985 -0.00201262 -0.0020157 -0.00212679 -0.00213065 -0.0020157 -0.00201985 -0.00213065 -0.00213574 -0.00190143 -0.00190522 -0.00201985 -0.00202526 -0.00190522 -0.00191018 -0.00202526 -0.00203217 -0.00201985 -0.00202526 -0.00213574 -0.00214226 -0.00202526 -0.00203217 -0.00214226 -0.00215042 -0.0021216 -0.00212149 -0.00223248 -0.00223246 -0.00212149 -0.00212229 -0.00223246 -0.00223345 -0.00223248 -0.00223246 -0.00234119 -0.00234124 -0.00223246 -0.00223345 -0.00234124 -0.00234235 -0.00212229 -0.00212404 -0.00223345 -0.0022355 -0.00212404 -0.00212679 -0.0022355 -0.00223865 -0.00223345 -0.0022355 -0.00234235 -0.00234456 -0.0022355 -0.00223865 -0.00234456 -0.00234792 -0.00234119 -0.00234124 -0.00244756 -0.00244764 -0.00234124 -0.00234235 -0.00244764 -0.0024488 -0.00244756 -0.00244764 -0.00255146 -0.00255156 -0.00244764 -0.0024488 -0.00255156 -0.0025527 -0.00234235 -0.00234456 -0.0024488 -0.00245106 -0.00234456 -0.00234792 -0.00245106 -0.00245445 -0.0024488 -0.00245106 -0.0025527 -0.00255491 -0.00245106 -0.00245445 -0.00255491 -0.00255818 -0.00212679 -0.00213065 -0.00223865 -0.002243 -0.00213065 -0.00213574 -0.002243 -0.00224865 -0.00223865 -0.002243 -0.00234792 -0.00235249 -0.002243 -0.00224865 -0.00235249 -0.00235835 -0.00213574 -0.00214226 -0.00224865 -0.00225576 -0.00214226 -0.00215042 -0.00225576 -0.0022645 -0.00224865 -0.00225576 -0.00235835 -0.00236559 -0.00225576 -0.0022645 -0.00236559 -0.00237432 -0.00234792 -0.00235249 -0.00245445 -0.002459 -0.00235249 -0.00235835 -0.002459 -0.00246476 -0.00245445 -0.002459 -0.00255818 -0.00256253 -0.002459 -0.00246476 -0.00256253 -0.00256797 -0.00235835 -0.00236559 -0.00246476 -0.00247178 -0.00236559 -0.00237432 -0.00247178 -0.00248008 -0.00246476 -0.00247178 -0.00256797 -0.0025745 -0.00247178 -0.00248008 -0.0025745 -0.00258209 -0.00165884 -0.00165838 -0.00178531 -0.00178856 -0.00165838 -0.00165791 -0.00178856 -0.00179294 -0.00178531 -0.00178856 -0.00191018 -0.00191663 -0.00178856 -0.00179294 -0.00191663 -0.00192505 -0.00165791 -0.00165742 -0.00179294 -0.00179893 -0.00165742 -0.00165689 -0.00179893 -0.00180739 -0.00179294 -0.00179893 -0.00192505 -0.00193619 -0.00179893 -0.00180739 -0.00193619 -0.00195118 -0.00191018 -0.00191663 -0.00203217 -0.00204095 -0.00191663 -0.00192505 -0.00204095 -0.0020521 -0.00203217 -0.00204095 -0.00215042 -0.00216055 -0.00204095 -0.0020521 -0.00216055 -0.00217302 -0.00192505 -0.00193619 -0.0020521 -0.00206629 -0.00193619 -0.00195118 -0.00206629 -0.00208442 -0.0020521 -0.00206629 -0.00217302 -0.00218826 -0.00206629 -0.00208442 -0.00218826 -0.00220669 -0.00165689 -0.00165628 -0.00180739 -0.00181986 -0.00165628 -0.00165547 -0.00181986 -0.0018397 -0.00180739 -0.00181986 -0.00195118 -0.00197187 -0.00181986 -0.0018397 -0.00197187 -0.00200101 -0.00165547 -0.00165409 -0.0018397 -0.00187448 -0.00165409 -0.00165236 -0.00187448 -0.00194963 -0.0018397 -0.00187448 -0.00200101 -0.0020427 -0.00187448 -0.00194963 -0.0020427 -0.0020865 -0.00195118 -0.00197187 -0.00208442 -0.0021075 -0.00197187 -0.00200101 -0.0021075 -0.00213635 -0.00208442 -0.0021075 -0.00220669 -0.00222848 -0.0021075 -0.00213635 -0.00222848 -0.00225296 -0.00200101 -0.0020427 -0.00213635 -0.0021688 -0.0020427 -0.0020865 -0.0021688 -0.00220209 -0.00213635 -0.0021688 -0.00225296 -0.00227863 -0.0021688 -0.00220209 -0.00227863 -0.00230331 -0.00215042 -0.00216055 -0.0022645 -0.00227507 -0.00216055 -0.00217302 -0.00227507 -0.00228768 -0.0022645 -0.00227507 -0.00237432 -0.00238464 -0.00227507 -0.00228768 -0.00238464 -0.00239659 -0.00217302 -0.00218826 -0.00228768 -0.00230251 -0.00218826 -0.00220669 -0.00230251 -0.00231957 -0.00228768 -0.00230251 -0.00239659 -0.00241014 -0.00230251 -0.00231957 -0.00241014 -0.00242508 -0.00237432 -0.00238464 -0.00248008 -0.00248967 -0.00238464 -0.00239659 -0.00248967 -0.00250047 -0.00248008 -0.00248967 -0.00258209 -0.00259066 -0.00248967 -0.00250047 -0.00259066 -0.0026001 -0.00239659 -0.00241014 -0.00250047 -0.00251234 -0.00241014 -0.00242508 -0.00251234 -0.00252499 -0.00250047 -0.00251234 -0.0026001 -0.00261019 -0.00251234 -0.00252499 -0.00261019 -0.00262062 -0.00220669 -0.00222848 -0.00231957 -0.00233853 -0.00222848 -0.00225296 -0.00233853 -0.00235861 -0.00231957 -0.00233853 -0.00242508 -0.00244096 -0.00233853 -0.00235861 -0.00244096 -0.00245707 -0.00225296 -0.00227863 -0.00235861 -0.00237858 -0.00227863 -0.00230331 -0.00237858 -0.00239739 -0.00235861 -0.00237858 -0.00245707 -0.0024726 -0.00237858 -0.00239739 -0.0024726 -0.00248693 -0.00242508 -0.00244096 -0.00252499 -0.00253797 -0.00244096 -0.00245707 -0.00253797 -0.00255071 -0.00252499 -0.00253797 -0.00262062 -0.00263101 -0.00253797 -0.00255071 -0.00263101 -0.00264094 -0.00245707 -0.0024726 -0.00255071 -0.00256268 -0.0024726 -0.00248693 -0.00256268 -0.00257353 -0.00255071 -0.00256268 -0.00264094 -0.00265004 -0.00256268 -0.00257353 -0.00265004 -0.00265811 -0.00255146 -0.00255156 -0.00265286 -0.00265296 -0.00255156 -0.0025527 -0.00265296 -0.00265404 -0.00265286 -0.00265296 -0.00275178 -0.00275187 -0.00265296 -0.00265404 -0.00275187 -0.00275284 -0.0025527 -0.00255491 -0.00265404 -0.0026561 -0.00255491 -0.00255818 -0.0026561 -0.00265914 -0.00265404 -0.0026561 -0.00275284 -0.0027547 -0.0026561 -0.00265914 -0.0027547 -0.00275743 -0.00275178 -0.00275187 -0.00284831 -0.00284836 -0.00275187 -0.00275284 -0.00284836 -0.0028492 -0.00284831 -0.00284836 -0.00294255 -0.00294257 -0.00284836 -0.0028492 -0.00294257 -0.00294325 -0.00275284 -0.0027547 -0.0028492 -0.00285081 -0.0027547 -0.00275743 -0.00285081 -0.00285317 -0.0028492 -0.00285081 -0.00294325 -0.00294458 -0.00285081 -0.00285317 -0.00294458 -0.00294653 -0.00255818 -0.00256253 -0.00265914 -0.00266315 -0.00256253 -0.00256797 -0.00266315 -0.00266811 -0.00265914 -0.00266315 -0.00275743 -0.002761 -0.00266315 -0.00266811 -0.002761 -0.00276538 -0.00256797 -0.0025745 -0.00266811 -0.00267398 -0.0025745 -0.00258209 -0.00267398 -0.00268069 -0.00266811 -0.00267398 -0.00276538 -0.0027705 -0.00267398 -0.00268069 -0.0027705 -0.00277626 -0.00275743 -0.002761 -0.00285317 -0.00285625 -0.002761 -0.00276538 -0.00285625 -0.00285998 -0.00285317 -0.00285625 -0.00294653 -0.00294907 -0.00285625 -0.00285998 -0.00294907 -0.00295213 -0.00276538 -0.0027705 -0.00285998 -0.0028643 -0.0027705 -0.00277626 -0.0028643 -0.0028691 -0.00285998 -0.0028643 -0.00295213 -0.00295563 -0.0028643 -0.0028691 -0.00295563 -0.00295948 -0.00294255 -0.00294257 -0.00303467 -0.00303464 -0.00294257 -0.00294325 -0.00303464 -0.00303514 -0.00303467 -0.00303464 -0.00312484 -0.00312476 -0.00303464 -0.00303514 -0.00312476 -0.00312507 -0.00294325 -0.00294458 -0.00303514 -0.00303616 -0.00294458 -0.00294653 -0.00303616 -0.00303768 -0.00303514 -0.00303616 -0.00312507 -0.00312576 -0.00303616 -0.00303768 -0.00312576 -0.00312682 -0.00312484 -0.00312476 -0.00321328 -0.00321312 -0.00312476 -0.00312507 -0.00321312 -0.00321325 -0.00321328 -0.00321312 -0.0033 -0.0033 -0.00321312 -0.00321325 -0.0033 -0.0033 -0.00312507 -0.00312576 -0.00321325 -0.00321362 -0.00312576 -0.00312682 -0.00321362 -0.00321417 -0.00321325 -0.00321362 -0.0033 -0.0033 -0.00321362 -0.00321417 -0.0033 -0.0033 -0.00294653 -0.00294907 -0.00303768 -0.00303965 -0.00294907 -0.00295213 -0.00303965 -0.00304201 -0.00303768 -0.00303965 -0.00312682 -0.00312819 -0.00303965 -0.00304201 -0.00312819 -0.00312983 -0.00295213 -0.00295563 -0.00304201 -0.0030447 -0.00295563 -0.00295948 -0.0030447 -0.00304762 -0.00304201 -0.0030447 -0.00312983 -0.00313169 -0.0030447 -0.00304762 -0.00313169 -0.00313368 -0.00312682 -0.00312819 -0.00321417 -0.0032149 -0.00312819 -0.00312983 -0.0032149 -0.00321577 -0.00321417 -0.0032149 -0.0033 -0.0033 -0.0032149 -0.00321577 -0.0033 -0.0033 -0.00312983 -0.00313169 -0.00321577 -0.00321674 -0.00313169 -0.00313368 -0.00321674 -0.00321778 -0.00321577 -0.00321674 -0.0033 -0.0033 -0.00321674 -0.00321778 -0.0033 -0.0033 -0.00258209 -0.00259066 -0.00268069 -0.00268813 -0.00259066 -0.0026001 -0.00268813 -0.00269614 -0.00268069 -0.00268813 -0.00277626 -0.00278254 -0.00268813 -0.00269614 -0.00278254 -0.00278916 -0.0026001 -0.00261019 -0.00269614 -0.0027045 -0.00261019 -0.00262062 -0.0027045 -0.00271291 -0.00269614 -0.0027045 -0.00278916 -0.00279591 -0.0027045 -0.00271291 -0.00279591 -0.00280254 -0.00277626 -0.00278254 -0.0028691 -0.00287424 -0.00278254 -0.00278916 -0.00287424 -0.00287957 -0.0028691 -0.00287424 -0.00295948 -0.00296355 -0.00287424 -0.00287957 -0.00296355 -0.00296768 -0.00278916 -0.00279591 -0.00287957 -0.00288488 -0.00279591 -0.00280254 -0.00288488 -0.00288997 -0.00287957 -0.00288488 -0.00296768 -0.00297171 -0.00288488 -0.00288997 -0.00297171 -0.00297548 -0.00262062 -0.00263101 -0.00271291 -0.00272108 -0.00263101 -0.00264094 -0.00272108 -0.00272867 -0.00271291 -0.00272108 -0.00280254 -0.00280881 -0.00272108 -0.00272867 -0.00280881 -0.00281447 -0.00264094 -0.00265004 -0.00272867 -0.00273544 -0.00265004 -0.00265811 -0.00273544 -0.00274127 -0.00272867 -0.00273544 -0.00281447 -0.00281935 -0.00273544 -0.00274127 -0.00281935 -0.00282339 -0.00280254 -0.00280881 -0.00288997 -0.00289464 -0.00280881 -0.00281447 -0.00289464 -0.00289871 -0.00288997 -0.00289464 -0.00297548 -0.00297882 -0.00289464 -0.00289871 -0.00297882 -0.00298161 -0.00281447 -0.00281935 -0.00289871 -0.00290207 -0.00281935 -0.00282339 -0.00290207 -0.00290469 -0.00289871 -0.00290207 -0.00298161 -0.00298377 -0.00290207 -0.00290469 -0.00298377 -0.00298528 -0.00295948 -0.00296355 -0.00304762 -0.00305066 -0.00296355 -0.00296768 -0.00305066 -0.0030537 -0.00304762 -0.00305066 -0.00313368 -0.00313574 -0.00305066 -0.0030537 -0.00313574 -0.00313776 -0.00296768 -0.00297171 -0.0030537 -0.00305661 -0.00297171 -0.00297548 -0.00305661 -0.00305924 -0.0030537 -0.00305661 -0.00313776 -0.00313965 -0.00305661 -0.00305924 -0.00313965 -0.00314131 -0.00313368 -0.00313574 -0.00321778 -0.00321884 -0.00313574 -0.00313776 -0.00321884 -0.00321987 -0.00321778 -0.00321884 -0.0033 -0.0033 -0.00321884 -0.00321987 -0.0033 -0.0033 -0.00313776 -0.00313965 -0.00321987 -0.00322082 -0.00313965 -0.00314131 -0.00322082 -0.00322162 -0.00321987 -0.00322082 -0.0033 -0.0033 -0.00322082 -0.00322162 -0.0033 -0.0033 -0.00297548 -0.00297882 -0.00305924 -0.0030615 -0.00297882 -0.00298161 -0.0030615 -0.00306327 -0.00305924 -0.0030615 -0.00314131 -0.00314267 -0.0030615 -0.00306327 -0.00314267 -0.00314365 -0.00298161 -0.00298377 -0.00306327 -0.00306451 -0.00298377 -0.00298528 -0.00306451 -0.00306521 -0.00306327 -0.00306451 -0.00314365 -0.00314423 -0.00306451 -0.00306521 -0.00314423 -0.00314441 -0.00314131 -0.00314267 -0.00322162 -0.00322224 -0.00314267 -0.00314365 -0.00322224 -0.00322265 -0.00322162 -0.00322224 -0.0033 -0.0033 -0.00322224 -0.00322265 -0.0033 -0.0033 -0.00314365 -0.00314423 -0.00322265 -0.00322282 -0.00314423 -0.00314441 -0.00322282 -0.00322275 -0.00322265 -0.00322282 -0.0033 -0.0033 -0.00322282 -0.00322275 -0.0033 -0.0033 -0.00165236 -0.00190305 -0.00194963 -0.00200997 -0.00190305 -0.0020518 -0.00200997 -0.00209325 -0.00194963 -0.00200997 -0.0020865 -0.00213215 -0.00200997 -0.00209325 -0.00213215 -0.00217617 -0.0020518 -0.00215277 -0.00209325 -0.00217171 -0.00215277 -0.00222911 -0.00217171 -0.00223875 -0.00209325 -0.00217171 -0.00217617 -0.00222659 -0.00217171 -0.00223875 -0.00222659 -0.00227675 -0.0020865 -0.00213215 -0.00220209 -0.00223289 -0.00213215 -0.00217617 -0.00223289 -0.00226396 -0.00220209 -0.00223289 -0.00230331 -0.00232635 -0.00223289 -0.00226396 -0.00232635 -0.00234861 -0.00217617 -0.00222659 -0.00226396 -0.00229696 -0.00222659 -0.00227675 -0.00229696 -0.00233225 -0.00226396 -0.00229696 -0.00234861 -0.00237192 -0.00229696 -0.00233225 -0.00237192 -0.00239678 -0.00222911 -0.00228989 -0.00223875 -0.00229513 -0.00228989 -0.0023396 -0.00229513 -0.00234257 -0.00223875 -0.00229513 -0.00227675 -0.00232294 -0.00229513 -0.00234257 -0.00232294 -0.00236401 -0.0023396 -0.00238077 -0.00234257 -0.00238255 -0.00238077 -0.00241501 -0.00238255 -0.00241622 -0.00234257 -0.00238255 -0.00236401 -0.00239987 -0.00238255 -0.00241622 -0.00239987 -0.00243079 -0.00227675 -0.00232294 -0.00233225 -0.00236735 -0.00232294 -0.00236401 -0.00236735 -0.00240045 -0.00233225 -0.00236735 -0.00239678 -0.00242254 -0.00236735 -0.00240045 -0.00242254 -0.00244798 -0.00236401 -0.00239987 -0.00240045 -0.00243059 -0.00239987 -0.00243079 -0.00243059 -0.00245739 -0.00240045 -0.00243059 -0.00244798 -0.00247209 -0.00243059 -0.00245739 -0.00247209 -0.00249422 -0.00230331 -0.00232635 -0.00239739 -0.00241469 -0.00232635 -0.00234861 -0.00241469 -0.00243119 -0.00239739 -0.00241469 -0.00248693 -0.00249997 -0.00241469 -0.00243119 -0.00249997 -0.00251219 -0.00234861 -0.00237192 -0.00243119 -0.00244796 -0.00237192 -0.00239678 -0.00244796 -0.00246571 -0.00243119 -0.00244796 -0.00251219 -0.00252433 -0.00244796 -0.00246571 -0.00252433 -0.00253697 -0.00248693 -0.00249997 -0.00257353 -0.00258324 -0.00249997 -0.00251219 -0.00258324 -0.00259216 -0.00257353 -0.00258324 -0.00265811 -0.00266518 -0.00258324 -0.00259216 -0.00266518 -0.00267151 -0.00251219 -0.00252433 -0.00259216 -0.00260082 -0.00252433 -0.00253697 -0.00260082 -0.00260969 -0.00259216 -0.00260082 -0.00267151 -0.00267748 -0.00260082 -0.00260969 -0.00267748 -0.00268348 -0.00239678 -0.00242254 -0.00246571 -0.00248435 -0.00242254 -0.00244798 -0.00248435 -0.00250332 -0.00246571 -0.00248435 -0.00253697 -0.0025503 -0.00248435 -0.00250332 -0.0025503 -0.00256409 -0.00244798 -0.00247209 -0.00250332 -0.00252188 -0.00247209 -0.00249422 -0.00252188 -0.00253941 -0.00250332 -0.00252188 -0.00256409 -0.00257792 -0.00252188 -0.00253941 -0.00257792 -0.00259131 -0.00253697 -0.0025503 -0.00260969 -0.00261901 -0.0025503 -0.00256409 -0.00261901 -0.00262876 -0.00260969 -0.00261901 -0.00268348 -0.00268975 -0.00261901 -0.00262876 -0.00268975 -0.00269635 -0.00256409 -0.00257792 -0.00262876 -0.00263871 -0.00257792 -0.00259131 -0.00263871 -0.00264856 -0.00262876 -0.00263871 -0.00269635 -0.00270321 -0.00263871 -0.00264856 -0.00270321 -0.00271013 -0.00241501 -0.00244345 -0.00241622 -0.00244442 -0.00244345 -0.00246688 -0.00244442 -0.00246781 -0.00241622 -0.00244442 -0.00243079 -0.00245713 -0.00244442 -0.00246781 -0.00245713 -0.00247925 -0.00246688 -0.00248589 -0.00246781 -0.00248689 -0.00248589 -0.00250092 -0.00248689 -0.00250203 -0.00246781 -0.00248689 -0.00247925 -0.00249746 -0.00248689 -0.00250203 -0.00249746 -0.00251202 -0.00243079 -0.00245713 -0.00245739 -0.00248073 -0.00245713 -0.00247925 -0.00248073 -0.00250066 -0.00245739 -0.00248073 -0.00249422 -0.00251396 -0.00248073 -0.00250066 -0.00251396 -0.00253115 -0.00247925 -0.00249746 -0.00250066 -0.00251727 -0.00249746 -0.00251202 -0.00251727 -0.00253067 -0.00250066 -0.00251727 -0.00253115 -0.00254568 -0.00251727 -0.00253067 -0.00254568 -0.00255753 -0.00250092 -0.0025123 -0.00250203 -0.00251354 -0.0025123 -0.00252026 -0.00251354 -0.00252161 -0.00250203 -0.00251354 -0.00251202 -0.00252314 -0.00251354 -0.00252161 -0.00252314 -0.00253097 -0.00252026 -0.00252498 -0.00252161 -0.0025264 -0.00252498 -0.00252654 -0.0025264 -0.00252798 -0.00252161 -0.0025264 -0.00253097 -0.00253562 -0.0025264 -0.00252798 -0.00253562 -0.00253716 -0.00251202 -0.00252314 -0.00253067 -0.00254098 -0.00252314 -0.00253097 -0.00254098 -0.00254827 -0.00253067 -0.00254098 -0.00255753 -0.00256671 -0.00254098 -0.00254827 -0.00256671 -0.00257324 -0.00253097 -0.00253562 -0.00254827 -0.00255261 -0.00253562 -0.00253716 -0.00255261 -0.00255404 -0.00254827 -0.00255261 -0.00257324 -0.00257714 -0.00255261 -0.00255404 -0.00257714 -0.00257843 -0.00249422 -0.00251396 -0.00253941 -0.00255544 -0.00251396 -0.00253115 -0.00255544 -0.00256967 -0.00253941 -0.00255544 -0.00259131 -0.00260383 -0.00255544 -0.00256967 -0.00260383 -0.00261516 -0.00253115 -0.00254568 -0.00256967 -0.00258189 -0.00254568 -0.00255753 -0.00258189 -0.00259197 -0.00256967 -0.00258189 -0.00261516 -0.00262505 -0.00258189 -0.00259197 -0.00262505 -0.00263331 -0.00259131 -0.00260383 -0.00264856 -0.00265797 -0.00260383 -0.00261516 -0.00265797 -0.00266664 -0.00264856 -0.00265797 -0.00271013 -0.00271689 -0.00265797 -0.00266664 -0.00271689 -0.00272323 -0.00261516 -0.00262505 -0.00266664 -0.00267433 -0.00262505 -0.00263331 -0.00267433 -0.00268083 -0.00266664 -0.00267433 -0.00272323 -0.00272895 -0.00267433 -0.00268083 -0.00272895 -0.00273385 -0.00255753 -0.00256671 -0.00259197 -0.00259986 -0.00256671 -0.00257324 -0.00259986 -0.0026055 -0.00259197 -0.00259986 -0.00263331 -0.00263983 -0.00259986 -0.0026055 -0.00263983 -0.00264452 -0.00257324 -0.00257714 -0.0026055 -0.00260887 -0.00257714 -0.00257843 -0.00260887 -0.00260997 -0.0026055 -0.00260887 -0.00264452 -0.00264733 -0.00260887 -0.00260997 -0.00264733 -0.00264824 -0.00263331 -0.00263983 -0.00268083 -0.00268601 -0.00263983 -0.00264452 -0.00268601 -0.00268976 -0.00268083 -0.00268601 -0.00273385 -0.00273779 -0.00268601 -0.00268976 -0.00273779 -0.00274066 -0.00264452 -0.00264733 -0.00268976 -0.00269201 -0.00264733 -0.00264824 -0.00269201 -0.00269273 -0.00268976 -0.00269201 -0.00274066 -0.00274238 -0.00269201 -0.00269273 -0.00274238 -0.00274291 -0.00265811 -0.00266518 -0.00274127 -0.00274622 -0.00266518 -0.00267151 -0.00274622 -0.00275049 -0.00274127 -0.00274622 -0.00282339 -0.00282665 -0.00274622 -0.00275049 -0.00282665 -0.00282928 -0.00267151 -0.00267748 -0.00275049 -0.00275437 -0.00267748 -0.00268348 -0.00275437 -0.00275816 -0.00275049 -0.00275437 -0.00282928 -0.00283152 -0.00275437 -0.00275816 -0.00283152 -0.00283362 -0.00282339 -0.00282665 -0.00290469 -0.00290661 -0.00282665 -0.00282928 -0.00290661 -0.00290798 -0.00290469 -0.00290661 -0.00298528 -0.0029862 -0.00290661 -0.00290798 -0.0029862 -0.00298663 -0.00282928 -0.00283152 -0.00290798 -0.00290898 -0.00283152 -0.00283362 -0.00290898 -0.00290981 -0.00290798 -0.00290898 -0.00298663 -0.00298674 -0.00290898 -0.00290981 -0.00298674 -0.00298667 -0.00268348 -0.00268975 -0.00275816 -0.00276208 -0.00268975 -0.00269635 -0.00276208 -0.00276626 -0.00275816 -0.00276208 -0.00283362 -0.00283577 -0.00276208 -0.00276626 -0.00283577 -0.0028381 -0.00269635 -0.00270321 -0.00276626 -0.00277069 -0.00270321 -0.00271013 -0.00277069 -0.00277526 -0.00276626 -0.00277069 -0.0028381 -0.00284066 -0.00277069 -0.00277526 -0.00284066 -0.0028434 -0.00283362 -0.00283577 -0.00290981 -0.00291064 -0.00283577 -0.0028381 -0.00291064 -0.00291161 -0.00290981 -0.00291064 -0.00298667 -0.00298659 -0.00291064 -0.00291161 -0.00298659 -0.0029866 -0.0028381 -0.00284066 -0.00291161 -0.00291277 -0.00284066 -0.0028434 -0.00291277 -0.00291412 -0.00291161 -0.00291277 -0.0029866 -0.00298679 -0.00291277 -0.00291412 -0.00298679 -0.00298717 -0.00298528 -0.0029862 -0.00306521 -0.00306542 -0.0029862 -0.00298663 -0.00306542 -0.00306524 -0.00306521 -0.00306542 -0.00314441 -0.00314422 -0.00306542 -0.00306524 -0.00314422 -0.00314374 -0.00298663 -0.00298674 -0.00306524 -0.0