# vtk DataFile Version 3.0
#This file was generated by the deal.II library on 2018/7/10 at 10:46:50
ASCII
DATASET UNSTRUCTURED_GRID

POINTS 4096 double
0 0.5 0
0.03125 0.5 0
0 0.53125 0
0.03125 0.53125 0
0.03125 0.5 0
0.0625 0.5 0
0.03125 0.53125 0
0.0625 0.53125 0
0 0.53125 0
0.03125 0.53125 0
0 0.5625 0
0.03125 0.5625 0
0.03125 0.53125 0
0.0625 0.53125 0
0.03125 0.5625 0
0.0625 0.5625 0
0.0625 0.5 0
0.09375 0.5 0
0.0625 0.53125 0
0.09375 0.53125 0
0.09375 0.5 0
0.125 0.5 0
0.09375 0.53125 0
0.125 0.53125 0
0.0625 0.53125 0
0.09375 0.53125 0
0.0625 0.5625 0
0.09375 0.5625 0
0.09375 0.53125 0
0.125 0.53125 0
0.09375 0.5625 0
0.125 0.5625 0
0 0.5625 0
0.03125 0.5625 0
0 0.59375 0
0.03125 0.59375 0
0.03125 0.5625 0
0.0625 0.5625 0
0.03125 0.59375 0
0.0625 0.59375 0
0 0.59375 0
0.03125 0.59375 0
0 0.625 0
0.03125 0.625 0
0.03125 0.59375 0
0.0625 0.59375 0
0.03125 0.625 0
0.0625 0.625 0
0.0625 0.5625 0
0.09375 0.5625 0
0.0625 0.59375 0
0.09375 0.59375 0
0.09375 0.5625 0
0.125 0.5625 0
0.09375 0.59375 0
0.125 0.59375 0
0.0625 0.59375 0
0.09375 0.59375 0
0.0625 0.625 0
0.09375 0.625 0
0.09375 0.59375 0
0.125 0.59375 0
0.09375 0.625 0
0.125 0.625 0
0.125 0.5 0
0.15625 0.5 0
0.125 0.53125 0
0.15625 0.53125 0
0.15625 0.5 0
0.1875 0.5 0
0.15625 0.53125 0
0.1875 0.53125 0
0.125 0.53125 0
0.15625 0.53125 0
0.125 0.5625 0
0.15625 0.5625 0
0.15625 0.53125 0
0.1875 0.53125 0
0.15625 0.5625 0
0.1875 0.5625 0
0.1875 0.5 0
0.21875 0.5 0
0.1875 0.53125 0
0.21875 0.53125 0
0.21875 0.5 0
0.25 0.5 0
0.21875 0.53125 0
0.25 0.53125 0
0.1875 0.53125 0
0.21875 0.53125 0
0.1875 0.5625 0
0.21875 0.5625 0
0.21875 0.53125 0
0.25 0.53125 0
0.21875 0.5625 0
0.25 0.5625 0
0.125 0.5625 0
0.15625 0.5625 0
0.125 0.59375 0
0.15625 0.59375 0
0.15625 0.5625 0
0.1875 0.5625 0
0.15625 0.59375 0
0.1875 0.59375 0
0.125 0.59375 0
0.15625 0.59375 0
0.125 0.625 0
0.15625 0.625 0
0.15625 0.59375 0
0.1875 0.59375 0
0.15625 0.625 0
0.1875 0.625 0
0.1875 0.5625 0
0.21875 0.5625 0
0.1875 0.59375 0
0.21875 0.59375 0
0.21875 0.5625 0
0.25 0.5625 0
0.21875 0.59375 0
0.25 0.59375 0
0.1875 0.59375 0
0.21875 0.59375 0
0.1875 0.625 0
0.21875 0.625 0
0.21875 0.59375 0
0.25 0.59375 0
0.21875 0.625 0
0.25 0.625 0
0 0.625 0
0.03125 0.625 0
0 0.65625 0
0.03125 0.65625 0
0.03125 0.625 0
0.0625 0.625 0
0.03125 0.65625 0
0.0625 0.65625 0
0 0.65625 0
0.03125 0.65625 0
0 0.6875 0
0.03125 0.6875 0
0.03125 0.65625 0
0.0625 0.65625 0
0.03125 0.6875 0
0.0625 0.6875 0
0.0625 0.625 0
0.09375 0.625 0
0.0625 0.65625 0
0.09375 0.65625 0
0.09375 0.625 0
0.125 0.625 0
0.09375 0.65625 0
0.125 0.65625 0
0.0625 0.65625 0
0.09375 0.65625 0
0.0625 0.6875 0
0.09375 0.6875 0
0.09375 0.65625 0
0.125 0.65625 0
0.09375 0.6875 0
0.125 0.6875 0
0 0.6875 0
0.03125 0.6875 0
0 0.71875 0
0.03125 0.71875 0
0.03125 0.6875 0
0.0625 0.6875 0
0.03125 0.71875 0
0.0625 0.71875 0
0 0.71875 0
0.03125 0.71875 0
0 0.75 0
0.03125 0.75 0
0.03125 0.71875 0
0.0625 0.71875 0
0.03125 0.75 0
0.0625 0.75 0
0.0625 0.6875 0
0.09375 0.6875 0
0.0625 0.71875 0
0.09375 0.71875 0
0.09375 0.6875 0
0.125 0.6875 0
0.09375 0.71875 0
0.125 0.71875 0
0.0625 0.71875 0
0.09375 0.71875 0
0.0625 0.75 0
0.09375 0.75 0
0.09375 0.71875 0
0.125 0.71875 0
0.09375 0.75 0
0.125 0.75 0
0.125 0.625 0
0.15625 0.625 0
0.125 0.65625 0
0.15625 0.65625 0
0.15625 0.625 0
0.1875 0.625 0
0.15625 0.65625 0
0.1875 0.65625 0
0.125 0.65625 0
0.15625 0.65625 0
0.125 0.6875 0
0.15625 0.6875 0
0.15625 0.65625 0
0.1875 0.65625 0
0.15625 0.6875 0
0.1875 0.6875 0
0.1875 0.625 0
0.21875 0.625 0
0.1875 0.65625 0
0.21875 0.65625 0
0.21875 0.625 0
0.25 0.625 0
0.21875 0.65625 0
0.25 0.65625 0
0.1875 0.65625 0
0.21875 0.65625 0
0.1875 0.6875 0
0.21875 0.6875 0
0.21875 0.65625 0
0.25 0.65625 0
0.21875 0.6875 0
0.25 0.6875 0
0.125 0.6875 0
0.15625 0.6875 0
0.125 0.71875 0
0.15625 0.71875 0
0.15625 0.6875 0
0.1875 0.6875 0
0.15625 0.71875 0
0.1875 0.71875 0
0.125 0.71875 0
0.15625 0.71875 0
0.125 0.75 0
0.15625 0.75 0
0.15625 0.71875 0
0.1875 0.71875 0
0.15625 0.75 0
0.1875 0.75 0
0.1875 0.6875 0
0.21875 0.6875 0
0.1875 0.71875 0
0.21875 0.71875 0
0.21875 0.6875 0
0.25 0.6875 0
0.21875 0.71875 0
0.25 0.71875 0
0.1875 0.71875 0
0.21875 0.71875 0
0.1875 0.75 0
0.21875 0.75 0
0.21875 0.71875 0
0.25 0.71875 0
0.21875 0.75 0
0.25 0.75 0
0.25 0.5 0
0.28125 0.5 0
0.25 0.53125 0
0.28125 0.53125 0
0.28125 0.5 0
0.3125 0.5 0
0.28125 0.53125 0
0.3125 0.53125 0
0.25 0.53125 0
0.28125 0.53125 0
0.25 0.5625 0
0.28125 0.5625 0
0.28125 0.53125 0
0.3125 0.53125 0
0.28125 0.5625 0
0.3125 0.5625 0
0.3125 0.5 0
0.34375 0.5 0
0.3125 0.53125 0
0.34375 0.53125 0
0.34375 0.5 0
0.375 0.5 0
0.34375 0.53125 0
0.375 0.53125 0
0.3125 0.53125 0
0.34375 0.53125 0
0.3125 0.5625 0
0.34375 0.5625 0
0.34375 0.53125 0
0.375 0.53125 0
0.34375 0.5625 0
0.375 0.5625 0
0.25 0.5625 0
0.28125 0.5625 0
0.25 0.59375 0
0.28125 0.59375 0
0.28125 0.5625 0
0.3125 0.5625 0
0.28125 0.59375 0
0.3125 0.59375 0
0.25 0.59375 0
0.28125 0.59375 0
0.25 0.625 0
0.28125 0.625 0
0.28125 0.59375 0
0.3125 0.59375 0
0.28125 0.625 0
0.3125 0.625 0
0.3125 0.5625 0
0.34375 0.5625 0
0.3125 0.59375 0
0.34375 0.59375 0
0.34375 0.5625 0
0.375 0.5625 0
0.34375 0.59375 0
0.375 0.59375 0
0.3125 0.59375 0
0.34375 0.59375 0
0.3125 0.625 0
0.34375 0.625 0
0.34375 0.59375 0
0.375 0.59375 0
0.34375 0.625 0
0.375 0.625 0
0.375 0.5 0
0.40625 0.5 0
0.375 0.53125 0
0.40625 0.53125 0
0.40625 0.5 0
0.4375 0.5 0
0.40625 0.53125 0
0.4375 0.53125 0
0.375 0.53125 0
0.40625 0.53125 0
0.375 0.5625 0
0.40625 0.5625 0
0.40625 0.53125 0
0.4375 0.53125 0
0.40625 0.5625 0
0.4375 0.5625 0
0.4375 0.5 0
0.46875 0.5 0
0.4375 0.53125 0
0.46875 0.53125 0
0.46875 0.5 0
0.5 0.5 0
0.46875 0.53125 0
0.5 0.53125 0
0.4375 0.53125 0
0.46875 0.53125 0
0.4375 0.5625 0
0.46875 0.5625 0
0.46875 0.53125 0
0.5 0.53125 0
0.46875 0.5625 0
0.5 0.5625 0
0.375 0.5625 0
0.40625 0.5625 0
0.375 0.59375 0
0.40625 0.59375 0
0.40625 0.5625 0
0.4375 0.5625 0
0.40625 0.59375 0
0.4375 0.59375 0
0.375 0.59375 0
0.40625 0.59375 0
0.375 0.625 0
0.40625 0.625 0
0.40625 0.59375 0
0.4375 0.59375 0
0.40625 0.625 0
0.4375 0.625 0
0.4375 0.5625 0
0.46875 0.5625 0
0.4375 0.59375 0
0.46875 0.59375 0
0.46875 0.5625 0
0.5 0.5625 0
0.46875 0.59375 0
0.5 0.59375 0
0.4375 0.59375 0
0.46875 0.59375 0
0.4375 0.625 0
0.46875 0.625 0
0.46875 0.59375 0
0.5 0.59375 0
0.46875 0.625 0
0.5 0.625 0
0.25 0.625 0
0.28125 0.625 0
0.25 0.65625 0
0.28125 0.65625 0
0.28125 0.625 0
0.3125 0.625 0
0.28125 0.65625 0
0.3125 0.65625 0
0.25 0.65625 0
0.28125 0.65625 0
0.25 0.6875 0
0.28125 0.6875 0
0.28125 0.65625 0
0.3125 0.65625 0
0.28125 0.6875 0
0.3125 0.6875 0
0.3125 0.625 0
0.34375 0.625 0
0.3125 0.65625 0
0.34375 0.65625 0
0.34375 0.625 0
0.375 0.625 0
0.34375 0.65625 0
0.375 0.65625 0
0.3125 0.65625 0
0.34375 0.65625 0
0.3125 0.6875 0
0.34375 0.6875 0
0.34375 0.65625 0
0.375 0.65625 0
0.34375 0.6875 0
0.375 0.6875 0
0.25 0.6875 0
0.28125 0.6875 0
0.25 0.71875 0
0.28125 0.71875 0
0.28125 0.6875 0
0.3125 0.6875 0
0.28125 0.71875 0
0.3125 0.71875 0
0.25 0.71875 0
0.28125 0.71875 0
0.25 0.75 0
0.28125 0.75 0
0.28125 0.71875 0
0.3125 0.71875 0
0.28125 0.75 0
0.3125 0.75 0
0.3125 0.6875 0
0.34375 0.6875 0
0.3125 0.71875 0
0.34375 0.71875 0
0.34375 0.6875 0
0.375 0.6875 0
0.34375 0.71875 0
0.375 0.71875 0
0.3125 0.71875 0
0.34375 0.71875 0
0.3125 0.75 0
0.34375 0.75 0
0.34375 0.71875 0
0.375 0.71875 0
0.34375 0.75 0
0.375 0.75 0
0.375 0.625 0
0.40625 0.625 0
0.375 0.65625 0
0.40625 0.65625 0
0.40625 0.625 0
0.4375 0.625 0
0.40625 0.65625 0
0.4375 0.65625 0
0.375 0.65625 0
0.40625 0.65625 0
0.375 0.6875 0
0.40625 0.6875 0
0.40625 0.65625 0
0.4375 0.65625 0
0.40625 0.6875 0
0.4375 0.6875 0
0.4375 0.625 0
0.46875 0.625 0
0.4375 0.65625 0
0.46875 0.65625 0
0.46875 0.625 0
0.5 0.625 0
0.46875 0.65625 0
0.5 0.65625 0
0.4375 0.65625 0
0.46875 0.65625 0
0.4375 0.6875 0
0.46875 0.6875 0
0.46875 0.65625 0
0.5 0.65625 0
0.46875 0.6875 0
0.5 0.6875 0
0.375 0.6875 0
0.40625 0.6875 0
0.375 0.71875 0
0.40625 0.71875 0
0.40625 0.6875 0
0.4375 0.6875 0
0.40625 0.71875 0
0.4375 0.71875 0
0.375 0.71875 0
0.40625 0.71875 0
0.375 0.75 0
0.40625 0.75 0
0.40625 0.71875 0
0.4375 0.71875 0
0.40625 0.75 0
0.4375 0.75 0
0.4375 0.6875 0
0.46875 0.6875 0
0.4375 0.71875 0
0.46875 0.71875 0
0.46875 0.6875 0
0.5 0.6875 0
0.46875 0.71875 0
0.5 0.71875 0
0.4375 0.71875 0
0.46875 0.71875 0
0.4375 0.75 0
0.46875 0.75 0
0.46875 0.71875 0
0.5 0.71875 0
0.46875 0.75 0
0.5 0.75 0
0 0.75 0
0.03125 0.75 0
0 0.78125 0
0.03125 0.78125 0
0.03125 0.75 0
0.0625 0.75 0
0.03125 0.78125 0
0.0625 0.78125 0
0 0.78125 0
0.03125 0.78125 0
0 0.8125 0
0.03125 0.8125 0
0.03125 0.78125 0
0.0625 0.78125 0
0.03125 0.8125 0
0.0625 0.8125 0
0.0625 0.75 0
0.09375 0.75 0
0.0625 0.78125 0
0.09375 0.78125 0
0.09375 0.75 0
0.125 0.75 0
0.09375 0.78125 0
0.125 0.78125 0
0.0625 0.78125 0
0.09375 0.78125 0
0.0625 0.8125 0
0.09375 0.8125 0
0.09375 0.78125 0
0.125 0.78125 0
0.09375 0.8125 0
0.125 0.8125 0
0 0.8125 0
0.03125 0.8125 0
0 0.84375 0
0.03125 0.84375 0
0.03125 0.8125 0
0.0625 0.8125 0
0.03125 0.84375 0
0.0625 0.84375 0
0 0.84375 0
0.03125 0.84375 0
0 0.875 0
0.03125 0.875 0
0.03125 0.84375 0
0.0625 0.84375 0
0.03125 0.875 0
0.0625 0.875 0
0.0625 0.8125 0
0.09375 0.8125 0
0.0625 0.84375 0
0.09375 0.84375 0
0.09375 0.8125 0
0.125 0.8125 0
0.09375 0.84375 0
0.125 0.84375 0
0.0625 0.84375 0
0.09375 0.84375 0
0.0625 0.875 0
0.09375 0.875 0
0.09375 0.84375 0
0.125 0.84375 0
0.09375 0.875 0
0.125 0.875 0
0.125 0.75 0
0.15625 0.75 0
0.125 0.78125 0
0.15625 0.78125 0
0.15625 0.75 0
0.1875 0.75 0
0.15625 0.78125 0
0.1875 0.78125 0
0.125 0.78125 0
0.15625 0.78125 0
0.125 0.8125 0
0.15625 0.8125 0
0.15625 0.78125 0
0.1875 0.78125 0
0.15625 0.8125 0
0.1875 0.8125 0
0.1875 0.75 0
0.21875 0.75 0
0.1875 0.78125 0
0.21875 0.78125 0
0.21875 0.75 0
0.25 0.75 0
0.21875 0.78125 0
0.25 0.78125 0
0.1875 0.78125 0
0.21875 0.78125 0
0.1875 0.8125 0
0.21875 0.8125 0
0.21875 0.78125 0
0.25 0.78125 0
0.21875 0.8125 0
0.25 0.8125 0
0.125 0.8125 0
0.15625 0.8125 0
0.125 0.84375 0
0.15625 0.84375 0
0.15625 0.8125 0
[...]
POINT_DATA 4096
SCALARS State_InstatPDEProblemContainer_0 double 1
LOOKUP_TABLE default
-0.000450179 -0.000450176 -0.000481732 -0.000481764 -0.000450176 -0.000450167 -0.000481764 -0.000481862 -0.000481732 -0.000481764 -0.000513162 -0.000513227 -0.000481764 -0.000481862 -0.000513227 -0.000513425 -0.000450167 -0.000450152 -0.000481862 -0.000482029 -0.000450152 -0.00045013 -0.000482029 -0.000482272 -0.000481862 -0.000482029 -0.000513425 -0.000513762 -0.000482029 -0.000482272 -0.000513762 -0.000514252 -0.000513162 -0.000513227 -0.00054434 -0.000544434 -0.000513227 -0.000513425 -0.000544434 -0.000544719 -0.00054434 -0.000544434 -0.000575151 -0.000575268 -0.000544434 -0.000544719 -0.000575268 -0.000575622 -0.000513425 -0.000513762 -0.000544719 -0.000545203 -0.000513762 -0.000514252 -0.000545203 -0.000545905 -0.000544719 -0.000545203 -0.000575622 -0.000576223 -0.000545203 -0.000545905 -0.000576223 -0.000577089 -0.00045013 -0.000450102 -0.000482272 -0.000482602 -0.000450102 -0.000450065 -0.000482602 -0.000483036 -0.000482272 -0.000482602 -0.000514252 -0.000514915 -0.000482602 -0.000483036 -0.000514915 -0.000515781 -0.000450065 -0.00045002 -0.000483036 -0.000483596 -0.00045002 -0.000449964 -0.000483596 -0.000484317 -0.000483036 -0.000483596 -0.000515781 -0.000516891 -0.000483596 -0.000484317 -0.000516891 -0.000518308 -0.000514252 -0.000514915 -0.000545905 -0.00054685 -0.000514915 -0.000515781 -0.00054685 -0.000548074 -0.000545905 -0.00054685 -0.000577089 -0.000578246 -0.00054685 -0.000548074 -0.000578246 -0.000579733 -0.000515781 -0.000516891 -0.000548074 -0.00054963 -0.000516891 -0.000518308 -0.00054963 -0.000551589 -0.000548074 -0.00054963 -0.000579733 -0.0005816 -0.00054963 -0.000551589 -0.0005816 -0.000583914 -0.000575151 -0.000575268 -0.000605496 -0.000605629 -0.000575268 -0.000575622 -0.000605629 -0.000606032 -0.000605496 -0.000605629 -0.000635297 -0.000635439 -0.000605629 -0.000606032 -0.000635439 -0.000635869 -0.000575622 -0.000576223 -0.000606032 -0.000606713 -0.000576223 -0.000577089 -0.000606713 -0.000607689 -0.000606032 -0.000606713 -0.000635869 -0.000636594 -0.000606713 -0.000607689 -0.000636594 -0.000637627 -0.000635297 -0.000635439 -0.000664496 -0.000664642 -0.000635439 -0.000635869 -0.000664642 -0.000665079 -0.000664496 -0.000664642 -0.000693059 -0.000693201 -0.000664642 -0.000665079 -0.000693201 -0.000693629 -0.000635869 -0.000636594 -0.000665079 -0.000665814 -0.000636594 -0.000637627 -0.000665814 -0.000666854 -0.000665079 -0.000665814 -0.000693629 -0.000694344 -0.000665814 -0.000666854 -0.000694344 -0.00069535 -0.000577089 -0.000578246 -0.000607689 -0.000608984 -0.000578246 -0.000579733 -0.000608984 -0.00061063 -0.000607689 -0.000608984 -0.000637627 -0.000638985 -0.000608984 -0.00061063 -0.000638985 -0.000640693 -0.000579733 -0.0005816 -0.00061063 -0.000612669 -0.0005816 -0.000583914 -0.000612669 -0.000615152 -0.00061063 -0.000612669 -0.000640693 -0.000642778 -0.000612669 -0.000615152 -0.000642778 -0.000645269 -0.000637627 -0.000638985 -0.000666854 -0.00066821 -0.000638985 -0.000640693 -0.00066821 -0.000669896 -0.000666854 -0.00066821 -0.00069535 -0.000696651 -0.00066821 -0.000669896 -0.000696651 -0.000698249 -0.000640693 -0.000642778 -0.000669896 -0.000671923 -0.000642778 -0.000645269 -0.000671923 -0.000674302 -0.000669896 -0.000671923 -0.000698249 -0.000700145 -0.000671923 -0.000674302 -0.000700145 -0.000702329 -0.000449964 -0.000449895 -0.000484317 -0.000485252 -0.000449895 -0.000449811 -0.000485252 -0.00048648 -0.000484317 -0.000485252 -0.000518308 -0.00052012 -0.000485252 -0.00048648 -0.00052012 -0.000522461 -0.000449811 -0.000449706 -0.00048648 -0.000488135 -0.000449706 -0.000449574 -0.000488135 -0.000490443 -0.00048648 -0.000488135 -0.000522461 -0.000525532 -0.000488135 -0.000490443 -0.000525532 -0.000529654 -0.000518308 -0.00052012 -0.000551589 -0.000554052 -0.00052012 -0.000522461 -0.000554052 -0.000557156 -0.000551589 -0.000554052 -0.000583914 -0.000586761 -0.000554052 -0.000557156 -0.000586761 -0.000590249 -0.000522461 -0.000525532 -0.000557156 -0.000561091 -0.000525532 -0.000529654 -0.000561091 -0.000566111 -0.000557156 -0.000561091 -0.000590249 -0.000594501 -0.000561091 -0.000566111 -0.000594501 -0.000599637 -0.000449574 -0.000449397 -0.000490443 -0.000493831 -0.000449397 -0.000449142 -0.000493831 -0.000499219 -0.000490443 -0.000493831 -0.000529654 -0.000535341 -0.000493831 -0.000499219 -0.000535341 -0.000543368 -0.000449142 -0.000448664 -0.000499219 -0.000508716 -0.000448664 -0.000447992 -0.000508716 -0.00052946 -0.000499219 -0.000508716 -0.000543368 -0.000554904 -0.000508716 -0.00052946 -0.000554904 -0.000567073 -0.000529654 -0.000535341 -0.000566111 -0.000572507 -0.000535341 -0.000543368 -0.000572507 -0.00058052 -0.000566111 -0.000572507 -0.000599637 -0.000605714 -0.000572507 -0.00058052 -0.000605714 -0.000612549 -0.000543368 -0.000554904 -0.00058052 -0.000589551 -0.000554904 -0.000567073 -0.000589551 -0.000598819 -0.00058052 -0.000589551 -0.000612549 -0.000619718 -0.000589551 -0.000598819 -0.000619718 -0.000626607 -0.000583914 -0.000586761 -0.000615152 -0.000618136 -0.000586761 -0.000590249 -0.000618136 -0.000621683 -0.000615152 -0.000618136 -0.000645269 -0.000648194 -0.000618136 -0.000621683 -0.000648194 -0.000651571 -0.000590249 -0.000594501 -0.000621683 -0.000625843 -0.000594501 -0.000599637 -0.000625843 -0.000630623 -0.000621683 -0.000625843 -0.000651571 -0.000655392 -0.000625843 -0.000630623 -0.000655392 -0.000659601 -0.000645269 -0.000648194 -0.000674302 -0.000677034 -0.000648194 -0.000651571 -0.000677034 -0.000680103 -0.000674302 -0.000677034 -0.000702329 -0.000704786 -0.000677034 -0.000680103 -0.000704786 -0.000707479 -0.000651571 -0.000655392 -0.000680103 -0.000683467 -0.000655392 -0.000659601 -0.000683467 -0.000687046 -0.000680103 -0.000683467 -0.000707479 -0.000710351 -0.000683467 -0.000687046 -0.000710351 -0.000713318 -0.000599637 -0.000605714 -0.000630623 -0.000635937 -0.000605714 -0.000612549 -0.000635937 -0.000641566 -0.000630623 -0.000635937 -0.000659601 -0.000664072 -0.000635937 -0.000641566 -0.000664072 -0.000668606 -0.000612549 -0.000619718 -0.000641566 -0.000647165 -0.000619718 -0.000626607 -0.000647165 -0.000652432 -0.000641566 -0.000647165 -0.000668606 -0.000672975 -0.000647165 -0.000652432 -0.000672975 -0.000677003 -0.000659601 -0.000664072 -0.000687046 -0.000690715 -0.000664072 -0.000668606 -0.000690715 -0.000694317 -0.000687046 -0.000690715 -0.000713318 -0.00071627 -0.000690715 -0.000694317 -0.00071627 -0.00071909 -0.000668606 -0.000672975 -0.000694317 -0.000697699 -0.000672975 -0.000677003 -0.000697699 -0.000700762 -0.000694317 -0.000697699 -0.00071909 -0.000721675 -0.000697699 -0.000700762 -0.000721675 -0.000723967 -0.000693059 -0.000693201 -0.00072097 -0.000721104 -0.000693201 -0.000693629 -0.000721104 -0.000721507 -0.00072097 -0.000721104 -0.00074823 -0.000748353 -0.000721104 -0.000721507 -0.000748353 -0.000748721 -0.000693629 -0.000694344 -0.000721507 -0.000722179 -0.000694344 -0.00069535 -0.000722179 -0.000723119 -0.000721507 -0.000722179 -0.000748721 -0.000749331 -0.000722179 -0.000723119 -0.000749331 -0.00075018 -0.00074823 -0.000748353 -0.000774858 -0.000774966 -0.000748353 -0.000748721 -0.000774966 -0.000775289 -0.000774858 -0.000774966 -0.000800883 -0.000800975 -0.000774966 -0.000775289 -0.000800975 -0.000801247 -0.000748721 -0.000749331 -0.000775289 -0.000775825 -0.000749331 -0.00075018 -0.000775825 -0.000776565 -0.000775289 -0.000775825 -0.000801247 -0.000801697 -0.000775825 -0.000776565 -0.000801697 -0.000802316 -0.00069535 -0.000696651 -0.000723119 -0.000724324 -0.000696651 -0.000698249 -0.000724324 -0.000725788 -0.000723119 -0.000724324 -0.00075018 -0.000751259 -0.000724324 -0.000725788 -0.000751259 -0.000752558 -0.000698249 -0.000700145 -0.000725788 -0.0007275 -0.000700145 -0.000702329 -0.0007275 -0.000729442 -0.000725788 -0.0007275 -0.000752558 -0.000754058 -0.0007275 -0.000729442 -0.000754058 -0.000755734 -0.00075018 -0.000751259 -0.000776565 -0.0007775 -0.000751259 -0.000752558 -0.0007775 -0.000778614 -0.000776565 -0.0007775 -0.000802316 -0.000803092 -0.0007775 -0.000778614 -0.000803092 -0.00080401 -0.000752558 -0.000754058 -0.000778614 -0.000779886 -0.000754058 -0.000755734 -0.000779886 -0.000781288 -0.000778614 -0.000779886 -0.00080401 -0.000805047 -0.000779886 -0.000781288 -0.000805047 -0.000806175 -0.000800883 -0.000800975 -0.00082635 -0.000826423 -0.000800975 -0.000801247 -0.000826423 -0.000826638 -0.00082635 -0.000826423 -0.000851313 -0.000851364 -0.000826423 -0.000826638 -0.000851364 -0.000851516 -0.000801247 -0.000801697 -0.000826638 -0.000826993 -0.000801697 -0.000802316 -0.000826993 -0.000827479 -0.000826638 -0.000826993 -0.000851516 -0.000851766 -0.000826993 -0.000827479 -0.000851766 -0.000852107 -0.000851313 -0.000851364 -0.000875836 -0.000875864 -0.000851364 -0.000851516 -0.000875864 -0.000875945 -0.000875836 -0.000875864 -0.0009 -0.0009 -0.000875864 -0.000875945 -0.0009 -0.0009 -0.000851516 -0.000851766 -0.000875945 -0.000876078 -0.000851766 -0.000852107 -0.000876078 -0.000876259 -0.000875945 -0.000876078 -0.0009 -0.0009 -0.000876078 -0.000876259 -0.0009 -0.0009 -0.000802316 -0.000803092 -0.000827479 -0.000828086 -0.000803092 -0.00080401 -0.000828086 -0.000828798 -0.000827479 -0.000828086 -0.000852107 -0.000852532 -0.000828086 -0.000828798 -0.000852532 -0.000853028 -0.00080401 -0.000805047 -0.000828798 -0.000829596 -0.000805047 -0.000806175 -0.000829596 -0.000830454 -0.000828798 -0.000829596 -0.000853028 -0.000853579 -0.000829596 -0.000830454 -0.000853579 -0.000854166 -0.000852107 -0.000852532 -0.000876259 -0.000876484 -0.000852532 -0.000853028 -0.000876484 -0.000876746 -0.000876259 -0.000876484 -0.0009 -0.0009 -0.000876484 -0.000876746 -0.0009 -0.0009 -0.000853028 -0.000853579 -0.000876746 -0.000877036 -0.000853579 -0.000854166 -0.000877036 -0.000877342 -0.000876746 -0.000877036 -0.0009 -0.0009 -0.000877036 -0.000877342 -0.0009 -0.0009 -0.000702329 -0.000704786 -0.000729442 -0.000731584 -0.000704786 -0.000707479 -0.000731584 -0.000733881 -0.000729442 -0.000731584 -0.000755734 -0.000757549 -0.000731584 -0.000733881 -0.000757549 -0.000759457 -0.000707479 -0.000710351 -0.000733881 -0.000736271 -0.000710351 -0.000713318 -0.000736271 -0.000738676 -0.000733881 -0.000736271 -0.000759457 -0.000761397 -0.000736271 -0.000738676 -0.000761397 -0.000763303 -0.000755734 -0.000757549 -0.000781288 -0.000782781 -0.000757549 -0.000759457 -0.000782781 -0.000784322 -0.000781288 -0.000782781 -0.000806175 -0.00080736 -0.000782781 -0.000784322 -0.00080736 -0.00080856 -0.000759457 -0.000761397 -0.000784322 -0.000785856 -0.000761397 -0.000763303 -0.000785856 -0.000787325 -0.000784322 -0.000785856 -0.00080856 -0.00080973 -0.000785856 -0.000787325 -0.00080973 -0.000810824 -0.000713318 -0.00071627 -0.000738676 -0.000741006 -0.00071627 -0.00071909 -0.000741006 -0.000743173 -0.000738676 -0.000741006 -0.000763303 -0.000765101 -0.000741006 -0.000743173 -0.000765101 -0.000766728 -0.00071909 -0.000721675 -0.000743173 -0.000745109 -0.000721675 -0.000723967 -0.000745109 -0.00074678 -0.000743173 -0.000745109 -0.000766728 -0.000768135 -0.000745109 -0.00074678 -0.000768135 -0.000769304 -0.000763303 -0.000765101 -0.000787325 -0.000788674 -0.000765101 -0.000766728 -0.000788674 -0.000789854 -0.000787325 -0.000788674 -0.000810824 -0.000811796 -0.000788674 -0.000789854 -0.000811796 -0.000812612 -0.000766728 -0.000768135 -0.000789854 -0.000790833 -0.000768135 -0.000769304 -0.000790833 -0.000791602 -0.000789854 -0.000790833 -0.000812612 -0.00081325 -0.000790833 -0.000791602 -0.00081325 -0.000813706 -0.000806175 -0.00080736 -0.000830454 -0.000831343 -0.00080736 -0.00080856 -0.000831343 -0.000832228 -0.000830454 -0.000831343 -0.000854166 -0.000854767 -0.000831343 -0.000832228 -0.000854767 -0.000855357 -0.00080856 -0.00080973 -0.000832228 -0.000833074 -0.00080973 -0.000810824 -0.000833074 -0.000833843 -0.000832228 -0.000833074 -0.000855357 -0.000855909 -0.000833074 -0.000833843 -0.000855909 -0.000856396 -0.000854166 -0.000854767 -0.000877342 -0.000877653 -0.000854767 -0.000855357 -0.000877653 -0.000877953 -0.000877342 -0.000877653 -0.0009 -0.0009 -0.000877653 -0.000877953 -0.0009 -0.0009 -0.000855357 -0.000855909 -0.000877953 -0.000878229 -0.000855909 -0.000856396 -0.000878229 -0.000878465 -0.000877953 -0.000878229 -0.0009 -0.0009 -0.000878229 -0.000878465 -0.0009 -0.0009 -0.000810824 -0.000811796 -0.000833843 -0.000834502 -0.000811796 -0.000812612 -0.000834502 -0.000835026 -0.000833843 -0.000834502 -0.000856396 -0.000856796 -0.000834502 -0.000835026 -0.000856796 -0.000857091 -0.000812612 -0.00081325 -0.000835026 -0.0008354 -0.00081325 -0.000813706 -0.0008354 -0.000835624 -0.000835026 -0.0008354 -0.000857091 -0.000857273 -0.0008354 -0.000835624 -0.000857273 -0.000857342 -0.000856396 -0.000856796 -0.000878465 -0.000878649 -0.000856796 -0.000857091 -0.000878649 -0.000878772 -0.000878465 -0.000878649 -0.0009 -0.0009 -0.000878649 -0.000878772 -0.0009 -0.0009 -0.000857091 -0.000857273 -0.000878772 -0.000878829 -0.000857273 -0.000857342 -0.000878829 -0.000878822 -0.000878772 -0.000878829 -0.0009 -0.0009 -0.000878829 -0.000878822 -0.0009 -0.0009 -0.000447992 -0.000516943 -0.00052946 -0.000546174 -0.000516943 -0.000557834 -0.000546174 -0.000569142 -0.00052946 -0.000546174 -0.000567073 -0.000579725 -0.000546174 -0.000569142 -0.000579725 -0.000591893 -0.000557834 -0.000585595 -0.000569142 -0.000590763 -0.000585595 -0.000606592 -0.000590763 -0.00060922 -0.000569142 -0.000590763 -0.000591893 -0.000605806 -0.000590763 -0.00060922 -0.000605806 -0.000619631 -0.000567073 -0.000579725 -0.000598819 -0.000607378 -0.000579725 -0.000591893 -0.000607378 -0.000615987 -0.000598819 -0.000607378 -0.000626607 -0.000633029 -0.000607378 -0.000615987 -0.000633029 -0.000639216 -0.000591893 -0.000605806 -0.000615987 -0.000625111 -0.000605806 -0.000619631 -0.000625111 -0.000634852 -0.000615987 -0.000625111 -0.000639216 -0.000645678 -0.000625111 -0.000634852 -0.000645678 -0.000652551 -0.000606592 -0.000623312 -0.00060922 -0.000624737 -0.000623312 -0.000636987 -0.000624737 -0.000637792 -0.00060922 -0.000624737 -0.000619631 -0.000632357 -0.000624737 -0.000637792 -0.000632357 -0.000643666 -0.000636987 -0.000648314 -0.000637792 -0.000648795 -0.000648314 -0.000657738 -0.000648795 -0.000658058 -0.000637792 -0.000648795 -0.000643666 -0.000653538 -0.000648795 -0.000658058 -0.000653538 -0.000662048 -0.000619631 -0.000632357 -0.000634852 -0.000644533 -0.000632357 -0.000643666 -0.000644533 -0.000653654 -0.000634852 -0.000644533 -0.000652551 -0.000659667 -0.000644533 -0.000653654 -0.000659667 -0.000666687 -0.000643666 -0.000653538 -0.000653654 -0.000661958 -0.000653538 -0.000662048 -0.000661958 -0.000669338 -0.000653654 -0.000661958 -0.000666687 -0.000673336 -0.000661958 -0.000669338 -0.000673336 -0.000679433 -0.000626607 -0.000633029 -0.000652432 -0.000657268 -0.000633029 -0.000639216 -0.000657268 -0.00066187 -0.000652432 -0.000657268 -0.000677003 -0.000680663 -0.000657268 -0.00066187 -0.000680663 -0.000684084 -0.000639216 -0.000645678 -0.00066187 -0.000666534 -0.000645678 -0.000652551 -0.000666534 -0.000671455 -0.00066187 -0.000666534 -0.000684084 -0.000687475 -0.000666534 -0.000671455 -0.000687475 -0.000690995 -0.000677003 -0.000680663 -0.000700762 -0.000703503 -0.000680663 -0.000684084 -0.000703503 -0.000706016 -0.000700762 -0.000703503 -0.000723967 -0.000725975 -0.000703503 -0.000706016 -0.000725975 -0.000727771 -0.000684084 -0.000687475 -0.000706016 -0.000708449 -0.000687475 -0.000690995 -0.000708449 -0.00071093 -0.000706016 -0.000708449 -0.000727771 -0.000729463 -0.000708449 -0.00071093 -0.000729463 -0.000731154 -0.000652551 -0.000659667 -0.000671455 -0.000676615 -0.000659667 -0.000666687 -0.000676615 -0.000681857 -0.000671455 -0.000676615 -0.000690995 -0.000694695 -0.000676615 -0.000681857 -0.000694695 -0.000698516 -0.000666687 -0.000673336 -0.000681857 -0.000686983 -0.000673336 -0.000679433 -0.000686983 -0.000691822 -0.000681857 -0.000686983 -0.000698516 -0.000702344 -0.000686983 -0.000691822 -0.000702344 -0.000706046 -0.000690995 -0.000694695 -0.00071093 -0.000713529 -0.000694695 -0.000698516 -0.000713529 -0.00071624 -0.00071093 -0.000713529 -0.000731154 -0.000732913 -0.000713529 -0.00071624 -0.000732913 -0.00073476 -0.000698516 -0.000702344 -0.00071624 -0.000719003 -0.000702344 -0.000706046 -0.000719003 -0.000721734 -0.00071624 -0.000719003 -0.00073476 -0.000736674 -0.000719003 -0.000721734 -0.000736674 -0.000738602 -0.000657738 -0.000665565 -0.000658058 -0.000665819 -0.000665565 -0.000672015 -0.000665819 -0.000672257 -0.000658058 -0.000665819 -0.000662048 -0.000669299 -0.000665819 -0.000672257 -0.000669299 -0.000675388 -0.000672015 -0.000677249 -0.000672257 -0.000677509 -0.000677249 -0.000681389 -0.000677509 -0.00068168 -0.000672257 -0.000677509 -0.000675388 -0.000680402 -0.000677509 -0.00068168 -0.000680402 -0.000684411 -0.000662048 -0.000669299 -0.000669338 -0.000675766 -0.000669299 -0.000675388 -0.000675766 -0.000681254 -0.000669338 -0.000675766 -0.000679433 -0.000684875 -0.000675766 -0.000681254 -0.000684875 -0.00068961 -0.000675388 -0.000680402 -0.000681254 -0.000685828 -0.000680402 -0.000684411 -0.000685828 -0.00068952 -0.000681254 -0.000685828 -0.00068961 -0.000693615 -0.000685828 -0.00068952 -0.000693615 -0.000696882 -0.000681389 -0.000684524 -0.00068168 -0.000684849 -0.000684524 -0.000686719 -0.000684849 -0.000687073 -0.00068168 -0.000684849 -0.000684411 -0.000687472 -0.000684849 -0.000687073 -0.000687472 -0.000689629 -0.000686719 -0.000688019 -0.000687073 -0.000688392 -0.000688019 -0.00068845 -0.000688392 -0.000688829 -0.000687073 -0.000688392 -0.000689629 -0.000690912 -0.000688392 -0.000688829 -0.000690912 -0.000691337 -0.000684411 -0.000687472 -0.00068952 -0.000692359 -0.000687472 -0.000689629 -0.000692359 -0.000694369 -0.00068952 -0.000692359 -0.000696882 -0.000699415 -0.000692359 -0.000694369 -0.000699415 -0.000701218 -0.000689629 -0.000690912 -0.000694369 -0.000695567 -0.000690912 -0.000691337 -0.000695567 -0.000695965 -0.000694369 -0.000695567 -0.000701218 -0.000702297 -0.000695567 -0.000695965 -0.000702297 -0.000702657 -0.000679433 -0.000684875 -0.000691822 -0.000696246 -0.000684875 -0.00068961 -0.000696246 -0.00070017 -0.000691822 -0.000696246 -0.000706046 -0.000709508 -0.000696246 -0.00070017 -0.000709508 -0.00071264 -0.00068961 -0.000693615 -0.00070017 -0.000703541 -0.000693615 -0.000696882 -0.000703541 -0.000706325 -0.00070017 -0.000703541 -0.00071264 -0.000715372 -0.000703541 -0.000706325 -0.000715372 -0.000717657 -0.000706046 -0.000709508 -0.000721734 -0.000724342 -0.000709508 -0.00071264 -0.000724342 -0.000726745 -0.000721734 -0.000724342 -0.000738602 -0.000740482 -0.000724342 -0.000726745 -0.000740482 -0.000742247 -0.00071264 -0.000715372 -0.000726745 -0.000728875 -0.000715372 -0.000717657 -0.000728875 -0.00073068 -0.000726745 -0.000728875 -0.000742247 -0.000743838 -0.000728875 -0.00073068 -0.000743838 -0.000745205 -0.000696882 -0.000699415 -0.000706325 -0.000708503 -0.000699415 -0.000701218 -0.000708503 -0.000710063 -0.000706325 -0.000708503 -0.000717657 -0.000719462 -0.000708503 -0.000710063 -0.000719462 -0.000720765 -0.000701218 -0.000702297 -0.000710063 -0.000711002 -0.000702297 -0.000702657 -0.000711002 -0.000711314 -0.000710063 -0.000711002 -0.000720765 -0.000721551 -0.000711002 -0.000711314 -0.000721551 -0.000721814 -0.000717657 -0.000719462 -0.00073068 -0.00073212 -0.000719462 -0.000720765 -0.00073212 -0.000733168 -0.00073068 -0.00073212 -0.000745205 -0.000746308 -0.00073212 -0.000733168 -0.000746308 -0.000747117 -0.000720765 -0.000721551 -0.000733168 -0.000733803 -0.000721551 -0.000721814 -0.000733803 -0.000734016 -0.000733168 -0.000733803 -0.000747117 -0.00074761 -0.000733803 -0.000734016 -0.00074761 -0.000747776 -0.000723967 -0.000725975 -0.00074678 -0.000748199 -0.000725975 -0.000727771 -0.000748199 -0.000749424 -0.00074678 -0.000748199 -0.000769304 -0.000770251 -0.000748199 -0.000749424 -0.000770251 -0.000771021 -0.000727771 -0.000729463 -0.000749424 -0.000750535 -0.000729