# vtk DataFile Version 3.0
#This file was generated by the deal.II library on 2018/7/10 at 10:46:58
ASCII
DATASET UNSTRUCTURED_GRID

POINTS 4096 double
0 0.5 0
0.03125 0.5 0
0 0.53125 0
0.03125 0.53125 0
0.03125 0.5 0
0.0625 0.5 0
0.03125 0.53125 0
0.0625 0.53125 0
0 0.53125 0
0.03125 0.53125 0
0 0.5625 0
0.03125 0.5625 0
0.03125 0.53125 0
0.0625 0.53125 0
0.03125 0.5625 0
0.0625 0.5625 0
0.0625 0.5 0
0.09375 0.5 0
0.0625 0.53125 0
0.09375 0.53125 0
0.09375 0.5 0
0.125 0.5 0
0.09375 0.53125 0
0.125 0.53125 0
0.0625 0.53125 0
0.09375 0.53125 0
0.0625 0.5625 0
0.09375 0.5625 0
0.09375 0.53125 0
0.125 0.53125 0
0.09375 0.5625 0
0.125 0.5625 0
0 0.5625 0
0.03125 0.5625 0
0 0.59375 0
0.03125 0.59375 0
0.03125 0.5625 0
0.0625 0.5625 0
0.03125 0.59375 0
0.0625 0.59375 0
0 0.59375 0
0.03125 0.59375 0
0 0.625 0
0.03125 0.625 0
0.03125 0.59375 0
0.0625 0.59375 0
0.03125 0.625 0
0.0625 0.625 0
0.0625 0.5625 0
0.09375 0.5625 0
0.0625 0.59375 0
0.09375 0.59375 0
0.09375 0.5625 0
0.125 0.5625 0
0.09375 0.59375 0
0.125 0.59375 0
0.0625 0.59375 0
0.09375 0.59375 0
0.0625 0.625 0
0.09375 0.625 0
0.09375 0.59375 0
0.125 0.59375 0
0.09375 0.625 0
0.125 0.625 0
0.125 0.5 0
0.15625 0.5 0
0.125 0.53125 0
0.15625 0.53125 0
0.15625 0.5 0
0.1875 0.5 0
0.15625 0.53125 0
0.1875 0.53125 0
0.125 0.53125 0
0.15625 0.53125 0
0.125 0.5625 0
0.15625 0.5625 0
0.15625 0.53125 0
0.1875 0.53125 0
0.15625 0.5625 0
0.1875 0.5625 0
0.1875 0.5 0
0.21875 0.5 0
0.1875 0.53125 0
0.21875 0.53125 0
0.21875 0.5 0
0.25 0.5 0
0.21875 0.53125 0
0.25 0.53125 0
0.1875 0.53125 0
0.21875 0.53125 0
0.1875 0.5625 0
0.21875 0.5625 0
0.21875 0.53125 0
0.25 0.53125 0
0.21875 0.5625 0
0.25 0.5625 0
0.125 0.5625 0
0.15625 0.5625 0
0.125 0.59375 0
0.15625 0.59375 0
0.15625 0.5625 0
0.1875 0.5625 0
0.15625 0.59375 0
0.1875 0.59375 0
0.125 0.59375 0
0.15625 0.59375 0
0.125 0.625 0
0.15625 0.625 0
0.15625 0.59375 0
0.1875 0.59375 0
0.15625 0.625 0
0.1875 0.625 0
0.1875 0.5625 0
0.21875 0.5625 0
0.1875 0.59375 0
0.21875 0.59375 0
0.21875 0.5625 0
0.25 0.5625 0
0.21875 0.59375 0
0.25 0.59375 0
0.1875 0.59375 0
0.21875 0.59375 0
0.1875 0.625 0
0.21875 0.625 0
0.21875 0.59375 0
0.25 0.59375 0
0.21875 0.625 0
0.25 0.625 0
0 0.625 0
0.03125 0.625 0
0 0.65625 0
0.03125 0.65625 0
0.03125 0.625 0
0.0625 0.625 0
0.03125 0.65625 0
0.0625 0.65625 0
0 0.65625 0
0.03125 0.65625 0
0 0.6875 0
0.03125 0.6875 0
0.03125 0.65625 0
0.0625 0.65625 0
0.03125 0.6875 0
0.0625 0.6875 0
0.0625 0.625 0
0.09375 0.625 0
0.0625 0.65625 0
0.09375 0.65625 0
0.09375 0.625 0
0.125 0.625 0
0.09375 0.65625 0
0.125 0.65625 0
0.0625 0.65625 0
0.09375 0.65625 0
0.0625 0.6875 0
0.09375 0.6875 0
0.09375 0.65625 0
0.125 0.65625 0
0.09375 0.6875 0
0.125 0.6875 0
0 0.6875 0
0.03125 0.6875 0
0 0.71875 0
0.03125 0.71875 0
0.03125 0.6875 0
0.0625 0.6875 0
0.03125 0.71875 0
0.0625 0.71875 0
0 0.71875 0
0.03125 0.71875 0
0 0.75 0
0.03125 0.75 0
0.03125 0.71875 0
0.0625 0.71875 0
0.03125 0.75 0
0.0625 0.75 0
0.0625 0.6875 0
0.09375 0.6875 0
0.0625 0.71875 0
0.09375 0.71875 0
0.09375 0.6875 0
0.125 0.6875 0
0.09375 0.71875 0
0.125 0.71875 0
0.0625 0.71875 0
0.09375 0.71875 0
0.0625 0.75 0
0.09375 0.75 0
0.09375 0.71875 0
0.125 0.71875 0
0.09375 0.75 0
0.125 0.75 0
0.125 0.625 0
0.15625 0.625 0
0.125 0.65625 0
0.15625 0.65625 0
0.15625 0.625 0
0.1875 0.625 0
0.15625 0.65625 0
0.1875 0.65625 0
0.125 0.65625 0
0.15625 0.65625 0
0.125 0.6875 0
0.15625 0.6875 0
0.15625 0.65625 0
0.1875 0.65625 0
0.15625 0.6875 0
0.1875 0.6875 0
0.1875 0.625 0
0.21875 0.625 0
0.1875 0.65625 0
0.21875 0.65625 0
0.21875 0.625 0
0.25 0.625 0
0.21875 0.65625 0
0.25 0.65625 0
0.1875 0.65625 0
0.21875 0.65625 0
0.1875 0.6875 0
0.21875 0.6875 0
0.21875 0.65625 0
0.25 0.65625 0
0.21875 0.6875 0
0.25 0.6875 0
0.125 0.6875 0
0.15625 0.6875 0
0.125 0.71875 0
0.15625 0.71875 0
0.15625 0.6875 0
0.1875 0.6875 0
0.15625 0.71875 0
0.1875 0.71875 0
0.125 0.71875 0
0.15625 0.71875 0
0.125 0.75 0
0.15625 0.75 0
0.15625 0.71875 0
0.1875 0.71875 0
0.15625 0.75 0
0.1875 0.75 0
0.1875 0.6875 0
0.21875 0.6875 0
0.1875 0.71875 0
0.21875 0.71875 0
0.21875 0.6875 0
0.25 0.6875 0
0.21875 0.71875 0
0.25 0.71875 0
0.1875 0.71875 0
0.21875 0.71875 0
0.1875 0.75 0
0.21875 0.75 0
0.21875 0.71875 0
0.25 0.71875 0
0.21875 0.75 0
0.25 0.75 0
0.25 0.5 0
0.28125 0.5 0
0.25 0.53125 0
0.28125 0.53125 0
0.28125 0.5 0
0.3125 0.5 0
0.28125 0.53125 0
0.3125 0.53125 0
0.25 0.53125 0
0.28125 0.53125 0
0.25 0.5625 0
0.28125 0.5625 0
0.28125 0.53125 0
0.3125 0.53125 0
0.28125 0.5625 0
0.3125 0.5625 0
0.3125 0.5 0
0.34375 0.5 0
0.3125 0.53125 0
0.34375 0.53125 0
0.34375 0.5 0
0.375 0.5 0
0.34375 0.53125 0
0.375 0.53125 0
0.3125 0.53125 0
0.34375 0.53125 0
0.3125 0.5625 0
0.34375 0.5625 0
0.34375 0.53125 0
0.375 0.53125 0
0.34375 0.5625 0
0.375 0.5625 0
0.25 0.5625 0
0.28125 0.5625 0
0.25 0.59375 0
0.28125 0.59375 0
0.28125 0.5625 0
0.3125 0.5625 0
0.28125 0.59375 0
0.3125 0.59375 0
0.25 0.59375 0
0.28125 0.59375 0
0.25 0.625 0
0.28125 0.625 0
0.28125 0.59375 0
0.3125 0.59375 0
0.28125 0.625 0
0.3125 0.625 0
0.3125 0.5625 0
0.34375 0.5625 0
0.3125 0.59375 0
0.34375 0.59375 0
0.34375 0.5625 0
0.375 0.5625 0
0.34375 0.59375 0
0.375 0.59375 0
0.3125 0.59375 0
0.34375 0.59375 0
0.3125 0.625 0
0.34375 0.625 0
0.34375 0.59375 0
0.375 0.59375 0
0.34375 0.625 0
0.375 0.625 0
0.375 0.5 0
0.40625 0.5 0
0.375 0.53125 0
0.40625 0.53125 0
0.40625 0.5 0
0.4375 0.5 0
0.40625 0.53125 0
0.4375 0.53125 0
0.375 0.53125 0
0.40625 0.53125 0
0.375 0.5625 0
0.40625 0.5625 0
0.40625 0.53125 0
0.4375 0.53125 0
0.40625 0.5625 0
0.4375 0.5625 0
0.4375 0.5 0
0.46875 0.5 0
0.4375 0.53125 0
0.46875 0.53125 0
0.46875 0.5 0
0.5 0.5 0
0.46875 0.53125 0
0.5 0.53125 0
0.4375 0.53125 0
0.46875 0.53125 0
0.4375 0.5625 0
0.46875 0.5625 0
0.46875 0.53125 0
0.5 0.53125 0
0.46875 0.5625 0
0.5 0.5625 0
0.375 0.5625 0
0.40625 0.5625 0
0.375 0.59375 0
0.40625 0.59375 0
0.40625 0.5625 0
0.4375 0.5625 0
0.40625 0.59375 0
0.4375 0.59375 0
0.375 0.59375 0
0.40625 0.59375 0
0.375 0.625 0
0.40625 0.625 0
0.40625 0.59375 0
0.4375 0.59375 0
0.40625 0.625 0
0.4375 0.625 0
0.4375 0.5625 0
0.46875 0.5625 0
0.4375 0.59375 0
0.46875 0.59375 0
0.46875 0.5625 0
0.5 0.5625 0
0.46875 0.59375 0
0.5 0.59375 0
0.4375 0.59375 0
0.46875 0.59375 0
0.4375 0.625 0
0.46875 0.625 0
0.46875 0.59375 0
0.5 0.59375 0
0.46875 0.625 0
0.5 0.625 0
0.25 0.625 0
0.28125 0.625 0
0.25 0.65625 0
0.28125 0.65625 0
0.28125 0.625 0
0.3125 0.625 0
0.28125 0.65625 0
0.3125 0.65625 0
0.25 0.65625 0
0.28125 0.65625 0
0.25 0.6875 0
0.28125 0.6875 0
0.28125 0.65625 0
0.3125 0.65625 0
0.28125 0.6875 0
0.3125 0.6875 0
0.3125 0.625 0
0.34375 0.625 0
0.3125 0.65625 0
0.34375 0.65625 0
0.34375 0.625 0
0.375 0.625 0
0.34375 0.65625 0
0.375 0.65625 0
0.3125 0.65625 0
0.34375 0.65625 0
0.3125 0.6875 0
0.34375 0.6875 0
0.34375 0.65625 0
0.375 0.65625 0
0.34375 0.6875 0
0.375 0.6875 0
0.25 0.6875 0
0.28125 0.6875 0
0.25 0.71875 0
0.28125 0.71875 0
0.28125 0.6875 0
0.3125 0.6875 0
0.28125 0.71875 0
0.3125 0.71875 0
0.25 0.71875 0
0.28125 0.71875 0
0.25 0.75 0
0.28125 0.75 0
0.28125 0.71875 0
0.3125 0.71875 0
0.28125 0.75 0
0.3125 0.75 0
0.3125 0.6875 0
0.34375 0.6875 0
0.3125 0.71875 0
0.34375 0.71875 0
0.34375 0.6875 0
0.375 0.6875 0
0.34375 0.71875 0
0.375 0.71875 0
0.3125 0.71875 0
0.34375 0.71875 0
0.3125 0.75 0
0.34375 0.75 0
0.34375 0.71875 0
0.375 0.71875 0
0.34375 0.75 0
0.375 0.75 0
0.375 0.625 0
0.40625 0.625 0
0.375 0.65625 0
0.40625 0.65625 0
0.40625 0.625 0
0.4375 0.625 0
0.40625 0.65625 0
0.4375 0.65625 0
0.375 0.65625 0
0.40625 0.65625 0
0.375 0.6875 0
0.40625 0.6875 0
0.40625 0.65625 0
0.4375 0.65625 0
0.40625 0.6875 0
0.4375 0.6875 0
0.4375 0.625 0
0.46875 0.625 0
0.4375 0.65625 0
0.46875 0.65625 0
0.46875 0.625 0
0.5 0.625 0
0.46875 0.65625 0
0.5 0.65625 0
0.4375 0.65625 0
0.46875 0.65625 0
0.4375 0.6875 0
0.46875 0.6875 0
0.46875 0.65625 0
0.5 0.65625 0
0.46875 0.6875 0
0.5 0.6875 0
0.375 0.6875 0
0.40625 0.6875 0
0.375 0.71875 0
0.40625 0.71875 0
0.40625 0.6875 0
0.4375 0.6875 0
0.40625 0.71875 0
0.4375 0.71875 0
0.375 0.71875 0
0.40625 0.71875 0
0.375 0.75 0
0.40625 0.75 0
0.40625 0.71875 0
0.4375 0.71875 0
0.40625 0.75 0
0.4375 0.75 0
0.4375 0.6875 0
0.46875 0.6875 0
0.4375 0.71875 0
0.46875 0.71875 0
0.46875 0.6875 0
0.5 0.6875 0
0.46875 0.71875 0
0.5 0.71875 0
0.4375 0.71875 0
0.46875 0.71875 0
0.4375 0.75 0
0.46875 0.75 0
0.46875 0.71875 0
0.5 0.71875 0
0.46875 0.75 0
0.5 0.75 0
0 0.75 0
0.03125 0.75 0
0 0.78125 0
0.03125 0.78125 0
0.03125 0.75 0
0.0625 0.75 0
0.03125 0.78125 0
0.0625 0.78125 0
0 0.78125 0
0.03125 0.78125 0
0 0.8125 0
0.03125 0.8125 0
0.03125 0.78125 0
0.0625 0.78125 0
0.03125 0.8125 0
0.0625 0.8125 0
0.0625 0.75 0
0.09375 0.75 0
0.0625 0.78125 0
0.09375 0.78125 0
0.09375 0.75 0
0.125 0.75 0
0.09375 0.78125 0
0.125 0.78125 0
0.0625 0.78125 0
0.09375 0.78125 0
0.0625 0.8125 0
0.09375 0.8125 0
0.09375 0.78125 0
0.125 0.78125 0
0.09375 0.8125 0
0.125 0.8125 0
0 0.8125 0
0.03125 0.8125 0
0 0.84375 0
0.03125 0.84375 0
0.03125 0.8125 0
0.0625 0.8125 0
0.03125 0.84375 0
0.0625 0.84375 0
0 0.84375 0
0.03125 0.84375 0
0 0.875 0
0.03125 0.875 0
0.03125 0.84375 0
0.0625 0.84375 0
0.03125 0.875 0
0.0625 0.875 0
0.0625 0.8125 0
0.09375 0.8125 0
0.0625 0.84375 0
0.09375 0.84375 0
0.09375 0.8125 0
0.125 0.8125 0
0.09375 0.84375 0
0.125 0.84375 0
0.0625 0.84375 0
0.09375 0.84375 0
0.0625 0.875 0
0.09375 0.875 0
0.09375 0.84375 0
0.125 0.84375 0
0.09375 0.875 0
0.125 0.875 0
0.125 0.75 0
0.15625 0.75 0
0.125 0.78125 0
0.15625 0.78125 0
0.15625 0.75 0
0.1875 0.75 0
0.15625 0.78125 0
0.1875 0.78125 0
0.125 0.78125 0
0.15625 0.78125 0
0.125 0.8125 0
0.15625 0.8125 0
0.15625 0.78125 0
0.1875 0.78125 0
0.15625 0.8125 0
0.1875 0.8125 0
0.1875 0.75 0
0.21875 0.75 0
0.1875 0.78125 0
0.21875 0.78125 0
0.21875 0.75 0
0.25 0.75 0
0.21875 0.78125 0
0.25 0.78125 0
0.1875 0.78125 0
0.21875 0.78125 0
0.1875 0.8125 0
0.21875 0.8125 0
0.21875 0.78125 0
0.25 0.78125 0
0.21875 0.8125 0
0.25 0.8125 0
0.125 0.8125 0
0.15625 0.8125 0
0.125 0.84375 0
0.15625 0.84375 0
0.15625 0.8125 0
[...]
POINT_DATA 4096
SCALARS State_InstatPDEProblemContainer_0 double 1
LOOKUP_TABLE default
-0.00135729 -0.00135694 -0.00145209 -0.00145185 -0.00135694 -0.00135661 -0.00145185 -0.00145185 -0.00145209 -0.00145185 -0.00154642 -0.0015463 -0.00145185 -0.00145185 -0.0015463 -0.0015466 -0.00135661 -0.00135629 -0.00145185 -0.00145208 -0.00135629 -0.00135598 -0.00145208 -0.00145257 -0.00145185 -0.00145208 -0.0015466 -0.00154735 -0.00145208 -0.00145257 -0.00154735 -0.00154858 -0.00154642 -0.0015463 -0.00163991 -0.00163988 -0.0015463 -0.0015466 -0.00163988 -0.00164045 -0.00163991 -0.00163988 -0.0017322 -0.00173225 -0.00163988 -0.00164045 -0.00173225 -0.00173303 -0.0015466 -0.00154735 -0.00164045 -0.00164164 -0.00154735 -0.00154858 -0.00164164 -0.00164351 -0.00164045 -0.00164164 -0.00173303 -0.00173458 -0.00164164 -0.00164351 -0.00173458 -0.00173694 -0.00135598 -0.00135567 -0.00145257 -0.00145335 -0.00135567 -0.00135537 -0.00145335 -0.00145446 -0.00145257 -0.00145335 -0.00154858 -0.00155036 -0.00145335 -0.00145446 -0.00155036 -0.00155277 -0.00135537 -0.00135506 -0.00145446 -0.00145598 -0.00135506 -0.00135474 -0.00145598 -0.00145801 -0.00145446 -0.00145598 -0.00155277 -0.00155594 -0.00145598 -0.00145801 -0.00155594 -0.00156005 -0.00154858 -0.00155036 -0.00164351 -0.00164613 -0.00155036 -0.00155277 -0.00164613 -0.00164961 -0.00164351 -0.00164613 -0.00173694 -0.00174019 -0.00164613 -0.00164961 -0.00174019 -0.00174445 -0.00155277 -0.00155594 -0.00164961 -0.0016541 -0.00155594 -0.00156005 -0.0016541 -0.00165982 -0.00164961 -0.0016541 -0.00174445 -0.00174986 -0.0016541 -0.00165982 -0.00174986 -0.00175661 -0.0017322 -0.00173225 -0.001823 -0.00182311 -0.00173225 -0.00173303 -0.00182311 -0.00182405 -0.001823 -0.00182311 -0.00191208 -0.00191224 -0.00182311 -0.00182405 -0.00191224 -0.00191328 -0.00173303 -0.00173458 -0.00182405 -0.00182584 -0.00173458 -0.00173694 -0.00182584 -0.00182853 -0.00182405 -0.00182584 -0.00191328 -0.0019152 -0.00182584 -0.00182853 -0.0019152 -0.00191806 -0.00191208 -0.00191224 -0.00199929 -0.00199948 -0.00191224 -0.00191328 -0.00199948 -0.00200054 -0.00199929 -0.00199948 -0.00208453 -0.00208473 -0.00199948 -0.00200054 -0.00208473 -0.00208577 -0.00191328 -0.0019152 -0.00200054 -0.00200251 -0.0019152 -0.00191806 -0.00200251 -0.00200539 -0.00200054 -0.00200251 -0.00208577 -0.00208769 -0.00200251 -0.00200539 -0.00208769 -0.00209047 -0.00173694 -0.00174019 -0.00182853 -0.00183219 -0.00174019 -0.00174445 -0.00183219 -0.00183691 -0.00182853 -0.00183219 -0.00191806 -0.0019219 -0.00183219 -0.00183691 -0.0019219 -0.00192679 -0.00174445 -0.00174986 -0.00183691 -0.00184281 -0.00174986 -0.00175661 -0.00184281 -0.00185005 -0.00183691 -0.00184281 -0.00192679 -0.00193282 -0.00184281 -0.00185005 -0.00193282 -0.00194006 -0.00191806 -0.0019219 -0.00200539 -0.00200922 -0.0019219 -0.00192679 -0.00200922 -0.00201404 -0.00200539 -0.00200922 -0.00209047 -0.00209414 -0.00200922 -0.00201404 -0.00209414 -0.0020987 -0.00192679 -0.00193282 -0.00201404 -0.00201989 -0.00193282 -0.00194006 -0.00201989 -0.00202679 -0.00201404 -0.00201989 -0.0020987 -0.00210415 -0.00201989 -0.00202679 -0.00210415 -0.00211047 -0.00135474 -0.00135442 -0.00145801 -0.0014607 -0.00135442 -0.00135407 -0.0014607 -0.00146431 -0.00145801 -0.0014607 -0.00156005 -0.00156536 -0.0014607 -0.00146431 -0.00156536 -0.00157228 -0.00135407 -0.0013537 -0.00146431 -0.00146922 -0.0013537 -0.00135327 -0.00146922 -0.00147612 -0.00146431 -0.00146922 -0.00157228 -0.00158141 -0.00146922 -0.00147612 -0.00158141 -0.00159368 -0.00156005 -0.00156536 -0.00165982 -0.00166706 -0.00156536 -0.00157228 -0.00166706 -0.00167622 -0.00165982 -0.00166706 -0.00175661 -0.00176497 -0.00166706 -0.00167622 -0.00176497 -0.00177524 -0.00157228 -0.00158141 -0.00167622 -0.00168788 -0.00158141 -0.00159368 -0.00168788 -0.00170276 -0.00167622 -0.00168788 -0.00177524 -0.00178778 -0.00168788 -0.00170276 -0.00178778 -0.00180295 -0.00135327 -0.00135276 -0.00147612 -0.00148629 -0.00135276 -0.00135206 -0.00148629 -0.00150247 -0.00147612 -0.00148629 -0.00159368 -0.00161063 -0.00148629 -0.00150247 -0.00161063 -0.00163452 -0.00135206 -0.00135082 -0.00150247 -0.00153089 -0.00135082 -0.00134919 -0.00153089 -0.00159255 -0.00150247 -0.00153089 -0.00163452 -0.00166875 -0.00153089 -0.00159255 -0.00166875 -0.00170477 -0.00159368 -0.00161063 -0.00170276 -0.00172172 -0.00161063 -0.00163452 -0.00172172 -0.00174545 -0.00170276 -0.00172172 -0.00180295 -0.0018209 -0.00172172 -0.00174545 -0.0018209 -0.00184107 -0.00163452 -0.00166875 -0.00174545 -0.00177215 -0.00166875 -0.00170477 -0.00177215 -0.00179956 -0.00174545 -0.00177215 -0.00184107 -0.00186223 -0.00177215 -0.00179956 -0.00186223 -0.00188256 -0.00175661 -0.00176497 -0.00185005 -0.00185879 -0.00176497 -0.00177524 -0.00185879 -0.0018692 -0.00185005 -0.00185879 -0.00194006 -0.0019486 -0.00185879 -0.0018692 -0.0019486 -0.00195849 -0.00177524 -0.00178778 -0.0018692 -0.00188143 -0.00178778 -0.00180295 -0.00188143 -0.0018955 -0.0018692 -0.00188143 -0.00195849 -0.00196969 -0.00188143 -0.0018955 -0.00196969 -0.00198204 -0.00194006 -0.0019486 -0.00202679 -0.00203474 -0.0019486 -0.00195849 -0.00203474 -0.0020437 -0.00202679 -0.00203474 -0.00211047 -0.0021176 -0.00203474 -0.0020437 -0.0021176 -0.00212543 -0.00195849 -0.00196969 -0.0020437 -0.00205353 -0.00196969 -0.00198204 -0.00205353 -0.002064 -0.0020437 -0.00205353 -0.00212543 -0.00213381 -0.00205353 -0.002064 -0.00213381 -0.00214246 -0.00180295 -0.0018209 -0.0018955 -0.00191115 -0.0018209 -0.00184107 -0.00191115 -0.00192772 -0.0018955 -0.00191115 -0.00198204 -0.00199517 -0.00191115 -0.00192772 -0.00199517 -0.00200849 -0.00184107 -0.00186223 -0.00192772 -0.00194421 -0.00186223 -0.00188256 -0.00194421 -0.00195973 -0.00192772 -0.00194421 -0.00200849 -0.00202132 -0.00194421 -0.00195973 -0.00202132 -0.00203317 -0.00198204 -0.00199517 -0.002064 -0.00207475 -0.00199517 -0.00200849 -0.00207475 -0.0020853 -0.002064 -0.00207475 -0.00214246 -0.00215108 -0.00207475 -0.0020853 -0.00215108 -0.00215932 -0.00200849 -0.00202132 -0.0020853 -0.00209521 -0.00202132 -0.00203317 -0.00209521 -0.00210419 -0.0020853 -0.00209521 -0.00215932 -0.00216687 -0.00209521 -0.00210419 -0.00216687 -0.00217357 -0.00208453 -0.00208473 -0.00216776 -0.00216795 -0.00208473 -0.00208577 -0.00216795 -0.00216894 -0.00216776 -0.00216795 -0.002249 -0.00224917 -0.00216795 -0.00216894 -0.00224917 -0.00225006 -0.00208577 -0.00208769 -0.00216894 -0.00217073 -0.00208769 -0.00209047 -0.00217073 -0.00217332 -0.00216894 -0.00217073 -0.00225006 -0.00225168 -0.00217073 -0.00217332 -0.00225168 -0.00225402 -0.002249 -0.00224917 -0.00232831 -0.00232844 -0.00224917 -0.00225006 -0.00232844 -0.00232922 -0.00232831 -0.00232844 -0.00240577 -0.00240587 -0.00232844 -0.00232922 -0.00240587 -0.00240651 -0.00225006 -0.00225168 -0.00232922 -0.00233063 -0.00225168 -0.00225402 -0.00233063 -0.00233265 -0.00232922 -0.00233063 -0.00240651 -0.00240768 -0.00233063 -0.00233265 -0.00240768 -0.00240936 -0.00209047 -0.00209414 -0.00217332 -0.00217671 -0.00209414 -0.0020987 -0.00217671 -0.00218088 -0.00217332 -0.00217671 -0.00225402 -0.00225704 -0.00217671 -0.00218088 -0.00225704 -0.00226073 -0.0020987 -0.00210415 -0.00218088 -0.00218579 -0.00210415 -0.00211047 -0.00218579 -0.00219139 -0.00218088 -0.00218579 -0.00226073 -0.00226502 -0.00218579 -0.00219139 -0.00226502 -0.00226983 -0.00225402 -0.00225704 -0.00233265 -0.00233526 -0.00225704 -0.00226073 -0.00233526 -0.00233841 -0.00233265 -0.00233526 -0.00240936 -0.00241152 -0.00233526 -0.00233841 -0.00241152 -0.0024141 -0.00226073 -0.00226502 -0.00233841 -0.00234204 -0.00226502 -0.00226983 -0.00234204 -0.00234606 -0.00233841 -0.00234204 -0.0024141 -0.00241705 -0.00234204 -0.00234606 -0.00241705 -0.00242028 -0.00240577 -0.00240587 -0.00248151 -0.00248157 -0.00240587 -0.00240651 -0.00248157 -0.00248205 -0.00248151 -0.00248157 -0.0025557 -0.0025557 -0.00248157 -0.00248205 -0.0025557 -0.00255602 -0.00240651 -0.00240768 -0.00248205 -0.00248296 -0.00240768 -0.00240936 -0.00248296 -0.00248427 -0.00248205 -0.00248296 -0.00255602 -0.00255665 -0.00248296 -0.00248427 -0.00255665 -0.00255756 -0.0025557 -0.0025557 -0.0026285 -0.00262844 -0.0025557 -0.00255602 -0.00262844 -0.00262859 -0.0026285 -0.00262844 -0.0027 -0.0027 -0.00262844 -0.00262859 -0.0027 -0.0027 -0.00255602 -0.00255665 -0.00262859 -0.00262892 -0.00255665 -0.00255756 -0.00262892 -0.0026294 -0.00262859 -0.00262892 -0.0027 -0.0027 -0.00262892 -0.0026294 -0.0027 -0.0027 -0.00240936 -0.00241152 -0.00248427 -0.00248595 -0.00241152 -0.0024141 -0.00248595 -0.00248796 -0.00248427 -0.00248595 -0.00255756 -0.00255874 -0.00248595 -0.00248796 -0.00255874 -0.00256013 -0.0024141 -0.00241705 -0.00248796 -0.00249022 -0.00241705 -0.00242028 -0.00249022 -0.00249267 -0.00248796 -0.00249022 -0.00256013 -0.00256169 -0.00249022 -0.00249267 -0.00256169 -0.00256337 -0.00255756 -0.00255874 -0.0026294 -0.00263002 -0.00255874 -0.00256013 -0.00263002 -0.00263076 -0.0026294 -0.00263002 -0.0027 -0.0027 -0.00263002 -0.00263076 -0.0027 -0.0027 -0.00256013 -0.00256169 -0.00263076 -0.00263158 -0.00256169 -0.00256337 -0.00263158 -0.00263246 -0.00263076 -0.00263158 -0.0027 -0.0027 -0.00263158 -0.00263246 -0.0027 -0.0027 -0.00211047 -0.0021176 -0.00219139 -0.00219759 -0.0021176 -0.00212543 -0.00219759 -0.00220425 -0.00219139 -0.00219759 -0.00226983 -0.00227507 -0.00219759 -0.00220425 -0.00227507 -0.00228059 -0.00212543 -0.00213381 -0.00220425 -0.0022112 -0.00213381 -0.00214246 -0.0022112 -0.00221819 -0.00220425 -0.0022112 -0.00228059 -0.00228622 -0.0022112 -0.00221819 -0.00228622 -0.00229174 -0.00226983 -0.00227507 -0.00234606 -0.00235036 -0.00227507 -0.00228059 -0.00235036 -0.0023548 -0.00234606 -0.00235036 -0.00242028 -0.00242368 -0.00235036 -0.0023548 -0.00242368 -0.00242714 -0.00228059 -0.00228622 -0.0023548 -0.00235924 -0.00228622 -0.00229174 -0.00235924 -0.00236349 -0.0023548 -0.00235924 -0.00242714 -0.00243051 -0.00235924 -0.00236349 -0.00243051 -0.00243366 -0.00214246 -0.00215108 -0.00221819 -0.00222498 -0.00215108 -0.00215932 -0.00222498 -0.00223129 -0.00221819 -0.00222498 -0.00229174 -0.00229696 -0.00222498 -0.00223129 -0.00229696 -0.00230168 -0.00215932 -0.00216687 -0.00223129 -0.00223692 -0.00216687 -0.00217357 -0.00223692 -0.00224178 -0.00223129 -0.00223692 -0.00230168 -0.00230575 -0.00223692 -0.00224178 -0.00230575 -0.00230913 -0.00229174 -0.00229696 -0.00236349 -0.00236739 -0.00229696 -0.00230168 -0.00236739 -0.00237079 -0.00236349 -0.00236739 -0.00243366 -0.00243646 -0.00236739 -0.00237079 -0.00243646 -0.00243881 -0.00230168 -0.00230575 -0.00237079 -0.00237361 -0.00230575 -0.00230913 -0.00237361 -0.00237581 -0.00237079 -0.00237361 -0.00243881 -0.00244062 -0.00237361 -0.00237581 -0.00244062 -0.00244191 -0.00242028 -0.00242368 -0.00249267 -0.00249522 -0.00242368 -0.00242714 -0.00249522 -0.00249777 -0.00249267 -0.00249522 -0.00256337 -0.00256509 -0.00249522 -0.00249777 -0.00256509 -0.00256678 -0.00242714 -0.00243051 -0.00249777 -0.0025002 -0.00243051 -0.00243366 -0.0025002 -0.00250241 -0.00249777 -0.0025002 -0.00256678 -0.00256837 -0.0025002 -0.00250241 -0.00256837 -0.00256977 -0.00256337 -0.00256509 -0.00263246 -0.00263335 -0.00256509 -0.00256678 -0.00263335 -0.00263421 -0.00263246 -0.00263335 -0.0027 -0.0027 -0.00263335 -0.00263421 -0.0027 -0.0027 -0.00256678 -0.00256837 -0.00263421 -0.002635 -0.00256837 -0.00256977 -0.002635 -0.00263568 -0.00263421 -0.002635 -0.0027 -0.0027 -0.002635 -0.00263568 -0.0027 -0.0027 -0.00243366 -0.00243646 -0.00250241 -0.0025043 -0.00243646 -0.00243881 -0.0025043 -0.00250579 -0.00250241 -0.0025043 -0.00256977 -0.00257091 -0.0025043 -0.00250579 -0.00257091 -0.00257174 -0.00243881 -0.00244062 -0.00250579 -0.00250685 -0.00244062 -0.00244191 -0.00250685 -0.00250746 -0.00250579 -0.00250685 -0.00257174 -0.00257224 -0.00250685 -0.00250746 -0.00257224 -0.00257241 -0.00256977 -0.00257091 -0.00263568 -0.0026362 -0.00257091 -0.00257174 -0.0026362 -0.00263655 -0.00263568 -0.0026362 -0.0027 -0.0027 -0.0026362 -0.00263655 -0.0027 -0.0027 -0.00257174 -0.00257224 -0.00263655 -0.0026367 -0.00257224 -0.00257241 -0.0026367 -0.00263666 -0.00263655 -0.0026367 -0.0027 -0.0027 -0.0026367 -0.00263666 -0.0027 -0.0027 -0.00134919 -0.00155459 -0.00159255 -0.00164211 -0.00155459 -0.00167651 -0.00164211 -0.00171044 -0.00159255 -0.00164211 -0.00170477 -0.00174229 -0.00164211 -0.00171044 -0.00174229 -0.00177843 -0.00167651 -0.0017593 -0.00171044 -0.00177482 -0.0017593 -0.00182193 -0.00177482 -0.00182983 -0.00171044 -0.00177482 -0.00177843 -0.00181982 -0.00177482 -0.00182983 -0.00181982 -0.00186099 -0.00170477 -0.00174229 -0.00179956 -0.00182489 -0.00174229 -0.00177843 -0.00182489 -0.00185043 -0.00179956 -0.00182489 -0.00188256 -0.00190154 -0.00182489 -0.00185043 -0.00190154 -0.00191986 -0.00177843 -0.00181982 -0.00185043 -0.00187753 -0.00181982 -0.00186099 -0.00187753 -0.00190652 -0.00185043 -0.00187753 -0.00191986 -0.00193903 -0.00187753 -0.00190652 -0.00193903 -0.00195945 -0.00182193 -0.00187182 -0.00182983 -0.00187611 -0.00187182 -0.00191262 -0.00187611 -0.00191505 -0.00182983 -0.00187611 -0.00186099 -0.00189891 -0.00187611 -0.00191505 -0.00189891 -0.00193264 -0.00191262 -0.00194642 -0.00191505 -0.00194788 -0.00194642 -0.00197454 -0.00194788 -0.00197552 -0.00191505 -0.00194788 -0.00193264 -0.00196208 -0.00194788 -0.00197552 -0.00196208 -0.00198747 -0.00186099 -0.00189891 -0.00190652 -0.00193534 -0.00189891 -0.00193264 -0.00193534 -0.00196252 -0.00190652 -0.00193534 -0.00195945 -0.00198062 -0.00193534 -0.00196252 -0.00198062 -0.00200152 -0.00193264 -0.00196208 -0.00196252 -0.00198728 -0.00196208 -0.00198747 -0.00198728 -0.00200929 -0.00196252 -0.00198728 -0.00200152 -0.00202132 -0.00198728 -0.00200929 -0.00202132 -0.0020395 -0.00188256 -0.00190154 -0.00195973 -0.00197399 -0.00190154 -0.00191986 -0.00197399 -0.00198759 -0.00195973 -0.00197399 -0.00203317 -0.00204394 -0.00197399 -0.00198759 -0.00204394 -0.00205402 -0.00191986 -0.00193903 -0.00198759 -0.0020014 -0.00193903 -0.00195945 -0.0020014 -0.00201599 -0.00198759 -0.0020014 -0.00205402 -0.00206403 -0.0020014 -0.00201599 -0.00206403 -0.00207444 -0.00203317 -0.00204394 -0.00210419 -0.00211223 -0.00204394 -0.00205402 -0.00211223 -0.00211961 -0.00210419 -0.00211223 -0.00217357 -0.00217943 -0.00211223 -0.00211961 -0.00217943 -0.00218468 -0.00205402 -0.00206403 -0.00211961 -0.00212676 -0.00206403 -0.00207444 -0.00212676 -0.00213408 -0.00211961 -0.00212676 -0.00218468 -0.00218963 -0.00212676 -0.00213408 -0.00218963 -0.00219459 -0.00195945 -0.00198062 -0.00201599 -0.00203132 -0.00198062 -0.00200152 -0.00203132 -0.00204691 -0.00201599 -0.00203132 -0.00207444 -0.00208541 -0.00203132 -0.00204691 -0.00208541 -0.00209675 -0.00200152 -0.00202132 -0.00204691 -0.00206216 -0.00202132 -0.0020395 -0.00206216 -0.00207657 -0.00204691 -0.00206216 -0.00209675 -0.00210812 -0.00206216 -0.00207657 -0.00210812 -0.00211913 -0.00207444 -0.00208541 -0.00213408 -0.00214176 -0.00208541 -0.00209675 -0.00214176 -0.00214979 -0.00213408 -0.00214176 -0.00219459 -0.00219977 -0.00214176 -0.00214979 -0.00219977 -0.00220522 -0.00209675 -0.00210812 -0.00214979 -0.00215798 -0.00210812 -0.00211913 -0.00215798 -0.00216608 -0.00214979 -0.00215798 -0.00220522 -0.00221087 -0.00215798 -0.00216608 -0.00221087 -0.00221658 -0.00197454 -0.0019979 -0.00197552 -0.00199868 -0.0019979 -0.00201715 -0.00199868 -0.00201789 -0.00197552 -0.00199868 -0.00198747 -0.0020091 -0.00199868 -0.00201789 -0.0020091 -0.00202727 -0.00201715 -0.00203276 -0.00201789 -0.00203356 -0.00203276 -0.00204511 -0.00203356 -0.00204601 -0.00201789 -0.00203356 -0.00202727 -0.00204223 -0.00203356 -0.00204601 -0.00204223 -0.00205419 -0.00198747 -0.0020091 -0.00200929 -0.00202846 -0.0020091 -0.00202727 -0.00202846 -0.00204483 -0.00200929 -0.00202846 -0.0020395 -0.00205572 -0.00202846 -0.00204483 -0.00205572 -0.00206984 -0.00202727 -0.00204223 -0.00204483 -0.00205848 -0.00204223 -0.00205419 -0.00205848 -0.00206949 -0.00204483 -0.00205848 -0.00206984 -0.00208177 -0.00205848 -0.00206949 -0.00208177 -0.00209151 -0.00204511 -0.00205446 -0.00204601 -0.00205546 -0.00205446 -0.00206101 -0.00205546 -0.0020621 -0.00204601 -0.00205546 -0.00205419 -0.00206333 -0.00205546 -0.0020621 -0.00206333 -0.00206976 -0.00206101 -0.00206489 -0.0020621 -0.00206603 -0.00206489 -0.00206617 -0.00206603 -0.00206733 -0.0020621 -0.00206603 -0.00206976 -0.00207358 -0.00206603 -0.00206733 -0.00207358 -0.00207485 -0.00205419 -0.00206333 -0.00206949 -0.00207795 -0.00206333 -0.00206976 -0.00207795 -0.00208394 -0.00206949 -0.00207795 -0.00209151 -0.00209906 -0.00207795 -0.00208394 -0.00209906 -0.00210443 -0.00206976 -0.00207358 -0.00208394 -0.00208751 -0.00207358 -0.00207485 -0.00208751 -0.00208869 -0.00208394 -0.00208751 -0.00210443 -0.00210764 -0.00208751 -0.00208869 -0.00210764 -0.0021087 -0.0020395 -0.00205572 -0.00207657 -0.00208974 -0.00205572 -0.00206984 -0.00208974 -0.00210143 -0.00207657 -0.00208974 -0.00211913 -0.00212943 -0.00208974 -0.00210143 -0.00212943 -0.00213875 -0.00206984 -0.00208177 -0.00210143 -0.00211148 -0.00208177 -0.00209151 -0.00211148 -0.00211977 -0.00210143 -0.00211148 -0.00213875 -0.00214688 -0.00211148 -0.00211977 -0.00214688 -0.00215367 -0.00211913 -0.00212943 -0.00216608 -0.00217383 -0.00212943 -0.00213875 -0.00217383 -0.00218096 -0.00216608 -0.00217383 -0.00221658 -0.00222214 -0.00217383 -0.00218096 -0.00222214 -0.00222737 -0.00213875 -0.00214688 -0.00218096 -0.00218729 -0.00214688 -0.00215367 -0.00218729 -0.00219265 -0.00218096 -0.00218729 -0.00222737 -0.00223208 -0.00218729 -0.00219265 -0.00223208 -0.00223612 -0.00209151 -0.00209906 -0.00211977 -0.00212625 -0.00209906 -0.00210443 -0.00212625 -0.00213089 -0.00211977 -0.00212625 -0.00215367 -0.00215904 -0.00212625 -0.00213089 -0.00215904 -0.0021629 -0.00210443 -0.00210764 -0.00213089 -0.00213367 -0.00210764 -0.0021087 -0.00213367 -0.00213459 -0.00213089 -0.00213367 -0.0021629 -0.00216522 -0.00213367 -0.00213459 -0.00216522 -0.00216598 -0.00215367 -0.00215904 -0.00219265 -0.00219692 -0.00215904 -0.0021629 -0.00219692 -0.00220001 -0.00219265 -0.00219692 -0.00223612 -0.00223938 -0.00219692 -0.00220001 -0.00223938 -0.00224175 -0.0021629 -0.00216522 -0.00220001 -0.00220187 -0.00216522 -0.00216598 -0.00220187 -0.00220248 -0.00220001 -0.00220187 -0.00224175 -0.00224318 -0.00220187 -0.00220248 -0.00224318 -0.00224364 -0.00217357 -0.00217943 -0.00224178 -0.0022459 -0.00217943 -0.00218468 -0.0022459 -0.00224945 -0.00224178 -0.0022459 -0.00230913 -0.00231185 -0.0022459 -0.00224945 -0.00231185 -0.00231406 -0.00218468 -0.00218963 -0.00224945 -0.00225268 -0.00218963 -0.00219459 -0.00225268 -0.00225582 -0.00224945 -0.00225268 -0.00231406 -0.00231594 -0.00225268 -0.00225582 -0.00231594 -0.0023177 -0.00230913 -0.00231185 -0.00237581 -0.00237743 -0.00231185 -0.00231406 -0.00237743 -0.00237859 -0.00237581 -0.00237743 -0.00244191 -0.0024427 -0.00237743 -0.00237859 -0.0024427 -0.00244309 -0.00231406 -0.00231594 -0.00237859 -0.00237945 -0.00231594 -0.0023177 -0.00237945 -0.00238016 -0.00237859 -0.00237945 -0.00244309 -0.0024432 -0.00237945 -0.00238016 -0.0024432 -0.00244317 -0.00219459 -0.00219977 -0.00225582 -0.00225908 -0.00219977 -0.00220522 -0.00225908 -0.00226254 -0.00225582 -0.00225908 -0.0023177 -0.00231949 -0.00225908 -0.00226254 -0.00231949 -0.00232143 -0.00220522 -0.00221087 -0.00226254 -0.0022662 -0.00221087 -0.00221658 -0.0022662 -0.00226997 -0.00226254 -0.0022662 -0.00232143 -0.00232355 -0.0022662 -0.00226997 -0.00232355 -0.00232583 -0.0023177 -0.00231949 -0.00238016 -0.00238087 -0.00231949 -0.00232143 -0.00238087 -0.00238169 -0.00238016 -0.00238087 -0.00244317 -0.00244313 -0.00238087 -0.00238169 -0.00244313 -0.00244316 -0.00232143 -0.00232355 -0.00238169 -0.00238266 -0.00232355 -0.00232583 -0.00238266 -0.0023838 -0.00238169 -0.00238266 -0.00244316 -0.00244334 -0.00238266 -0.0023838 -0.00244334 -0.00244367 -0.00244191 -0.0024427 -0.00250746 -0.00250766 -0.0024427 -0.00244309 -0.00250766 -0.00250753 -0.00250746 -0.00250766 -0.00257241 -0.00257228 -0.00250766 -0.00250753 -0.00257228 -0.0025719 -0.00244309 -0.0024432 -0.00250753 -0.00250718 -0.0