# vtk DataFile Version 3.0
#This file was generated by the deal.II library on 2018/7/10 at 10:46:49
ASCII
DATASET UNSTRUCTURED_GRID

POINTS 4096 double
0 0.5 0
0.03125 0.5 0
0 0.53125 0
0.03125 0.53125 0
0.03125 0.5 0
0.0625 0.5 0
0.03125 0.53125 0
0.0625 0.53125 0
0 0.53125 0
0.03125 0.53125 0
0 0.5625 0
0.03125 0.5625 0
0.03125 0.53125 0
0.0625 0.53125 0
0.03125 0.5625 0
0.0625 0.5625 0
0.0625 0.5 0
0.09375 0.5 0
0.0625 0.53125 0
0.09375 0.53125 0
0.09375 0.5 0
0.125 0.5 0
0.09375 0.53125 0
0.125 0.53125 0
0.0625 0.53125 0
0.09375 0.53125 0
0.0625 0.5625 0
0.09375 0.5625 0
0.09375 0.53125 0
0.125 0.53125 0
0.09375 0.5625 0
0.125 0.5625 0
0 0.5625 0
0.03125 0.5625 0
0 0.59375 0
0.03125 0.59375 0
0.03125 0.5625 0
0.0625 0.5625 0
0.03125 0.59375 0
0.0625 0.59375 0
0 0.59375 0
0.03125 0.59375 0
0 0.625 0
0.03125 0.625 0
0.03125 0.59375 0
0.0625 0.59375 0
0.03125 0.625 0
0.0625 0.625 0
0.0625 0.5625 0
0.09375 0.5625 0
0.0625 0.59375 0
0.09375 0.59375 0
0.09375 0.5625 0
0.125 0.5625 0
0.09375 0.59375 0
0.125 0.59375 0
0.0625 0.59375 0
0.09375 0.59375 0
0.0625 0.625 0
0.09375 0.625 0
0.09375 0.59375 0
0.125 0.59375 0
0.09375 0.625 0
0.125 0.625 0
0.125 0.5 0
0.15625 0.5 0
0.125 0.53125 0
0.15625 0.53125 0
0.15625 0.5 0
0.1875 0.5 0
0.15625 0.53125 0
0.1875 0.53125 0
0.125 0.53125 0
0.15625 0.53125 0
0.125 0.5625 0
0.15625 0.5625 0
0.15625 0.53125 0
0.1875 0.53125 0
0.15625 0.5625 0
0.1875 0.5625 0
0.1875 0.5 0
0.21875 0.5 0
0.1875 0.53125 0
0.21875 0.53125 0
0.21875 0.5 0
0.25 0.5 0
0.21875 0.53125 0
0.25 0.53125 0
0.1875 0.53125 0
0.21875 0.53125 0
0.1875 0.5625 0
0.21875 0.5625 0
0.21875 0.53125 0
0.25 0.53125 0
0.21875 0.5625 0
0.25 0.5625 0
0.125 0.5625 0
0.15625 0.5625 0
0.125 0.59375 0
0.15625 0.59375 0
0.15625 0.5625 0
0.1875 0.5625 0
0.15625 0.59375 0
0.1875 0.59375 0
0.125 0.59375 0
0.15625 0.59375 0
0.125 0.625 0
0.15625 0.625 0
0.15625 0.59375 0
0.1875 0.59375 0
0.15625 0.625 0
0.1875 0.625 0
0.1875 0.5625 0
0.21875 0.5625 0
0.1875 0.59375 0
0.21875 0.59375 0
0.21875 0.5625 0
0.25 0.5625 0
0.21875 0.59375 0
0.25 0.59375 0
0.1875 0.59375 0
0.21875 0.59375 0
0.1875 0.625 0
0.21875 0.625 0
0.21875 0.59375 0
0.25 0.59375 0
0.21875 0.625 0
0.25 0.625 0
0 0.625 0
0.03125 0.625 0
0 0.65625 0
0.03125 0.65625 0
0.03125 0.625 0
0.0625 0.625 0
0.03125 0.65625 0
0.0625 0.65625 0
0 0.65625 0
0.03125 0.65625 0
0 0.6875 0
0.03125 0.6875 0
0.03125 0.65625 0
0.0625 0.65625 0
0.03125 0.6875 0
0.0625 0.6875 0
0.0625 0.625 0
0.09375 0.625 0
0.0625 0.65625 0
0.09375 0.65625 0
0.09375 0.625 0
0.125 0.625 0
0.09375 0.65625 0
0.125 0.65625 0
0.0625 0.65625 0
0.09375 0.65625 0
0.0625 0.6875 0
0.09375 0.6875 0
0.09375 0.65625 0
0.125 0.65625 0
0.09375 0.6875 0
0.125 0.6875 0
0 0.6875 0
0.03125 0.6875 0
0 0.71875 0
0.03125 0.71875 0
0.03125 0.6875 0
0.0625 0.6875 0
0.03125 0.71875 0
0.0625 0.71875 0
0 0.71875 0
0.03125 0.71875 0
0 0.75 0
0.03125 0.75 0
0.03125 0.71875 0
0.0625 0.71875 0
0.03125 0.75 0
0.0625 0.75 0
0.0625 0.6875 0
0.09375 0.6875 0
0.0625 0.71875 0
0.09375 0.71875 0
0.09375 0.6875 0
0.125 0.6875 0
0.09375 0.71875 0
0.125 0.71875 0
0.0625 0.71875 0
0.09375 0.71875 0
0.0625 0.75 0
0.09375 0.75 0
0.09375 0.71875 0
0.125 0.71875 0
0.09375 0.75 0
0.125 0.75 0
0.125 0.625 0
0.15625 0.625 0
0.125 0.65625 0
0.15625 0.65625 0
0.15625 0.625 0
0.1875 0.625 0
0.15625 0.65625 0
0.1875 0.65625 0
0.125 0.65625 0
0.15625 0.65625 0
0.125 0.6875 0
0.15625 0.6875 0
0.15625 0.65625 0
0.1875 0.65625 0
0.15625 0.6875 0
0.1875 0.6875 0
0.1875 0.625 0
0.21875 0.625 0
0.1875 0.65625 0
0.21875 0.65625 0
0.21875 0.625 0
0.25 0.625 0
0.21875 0.65625 0
0.25 0.65625 0
0.1875 0.65625 0
0.21875 0.65625 0
0.1875 0.6875 0
0.21875 0.6875 0
0.21875 0.65625 0
0.25 0.65625 0
0.21875 0.6875 0
0.25 0.6875 0
0.125 0.6875 0
0.15625 0.6875 0
0.125 0.71875 0
0.15625 0.71875 0
0.15625 0.6875 0
0.1875 0.6875 0
0.15625 0.71875 0
0.1875 0.71875 0
0.125 0.71875 0
0.15625 0.71875 0
0.125 0.75 0
0.15625 0.75 0
0.15625 0.71875 0
0.1875 0.71875 0
0.15625 0.75 0
0.1875 0.75 0
0.1875 0.6875 0
0.21875 0.6875 0
0.1875 0.71875 0
0.21875 0.71875 0
0.21875 0.6875 0
0.25 0.6875 0
0.21875 0.71875 0
0.25 0.71875 0
0.1875 0.71875 0
0.21875 0.71875 0
0.1875 0.75 0
0.21875 0.75 0
0.21875 0.71875 0
0.25 0.71875 0
0.21875 0.75 0
0.25 0.75 0
0.25 0.5 0
0.28125 0.5 0
0.25 0.53125 0
0.28125 0.53125 0
0.28125 0.5 0
0.3125 0.5 0
0.28125 0.53125 0
0.3125 0.53125 0
0.25 0.53125 0
0.28125 0.53125 0
0.25 0.5625 0
0.28125 0.5625 0
0.28125 0.53125 0
0.3125 0.53125 0
0.28125 0.5625 0
0.3125 0.5625 0
0.3125 0.5 0
0.34375 0.5 0
0.3125 0.53125 0
0.34375 0.53125 0
0.34375 0.5 0
0.375 0.5 0
0.34375 0.53125 0
0.375 0.53125 0
0.3125 0.53125 0
0.34375 0.53125 0
0.3125 0.5625 0
0.34375 0.5625 0
0.34375 0.53125 0
0.375 0.53125 0
0.34375 0.5625 0
0.375 0.5625 0
0.25 0.5625 0
0.28125 0.5625 0
0.25 0.59375 0
0.28125 0.59375 0
0.28125 0.5625 0
0.3125 0.5625 0
0.28125 0.59375 0
0.3125 0.59375 0
0.25 0.59375 0
0.28125 0.59375 0
0.25 0.625 0
0.28125 0.625 0
0.28125 0.59375 0
0.3125 0.59375 0
0.28125 0.625 0
0.3125 0.625 0
0.3125 0.5625 0
0.34375 0.5625 0
0.3125 0.59375 0
0.34375 0.59375 0
0.34375 0.5625 0
0.375 0.5625 0
0.34375 0.59375 0
0.375 0.59375 0
0.3125 0.59375 0
0.34375 0.59375 0
0.3125 0.625 0
0.34375 0.625 0
0.34375 0.59375 0
0.375 0.59375 0
0.34375 0.625 0
0.375 0.625 0
0.375 0.5 0
0.40625 0.5 0
0.375 0.53125 0
0.40625 0.53125 0
0.40625 0.5 0
0.4375 0.5 0
0.40625 0.53125 0
0.4375 0.53125 0
0.375 0.53125 0
0.40625 0.53125 0
0.375 0.5625 0
0.40625 0.5625 0
0.40625 0.53125 0
0.4375 0.53125 0
0.40625 0.5625 0
0.4375 0.5625 0
0.4375 0.5 0
0.46875 0.5 0
0.4375 0.53125 0
0.46875 0.53125 0
0.46875 0.5 0
0.5 0.5 0
0.46875 0.53125 0
0.5 0.53125 0
0.4375 0.53125 0
0.46875 0.53125 0
0.4375 0.5625 0
0.46875 0.5625 0
0.46875 0.53125 0
0.5 0.53125 0
0.46875 0.5625 0
0.5 0.5625 0
0.375 0.5625 0
0.40625 0.5625 0
0.375 0.59375 0
0.40625 0.59375 0
0.40625 0.5625 0
0.4375 0.5625 0
0.40625 0.59375 0
0.4375 0.59375 0
0.375 0.59375 0
0.40625 0.59375 0
0.375 0.625 0
0.40625 0.625 0
0.40625 0.59375 0
0.4375 0.59375 0
0.40625 0.625 0
0.4375 0.625 0
0.4375 0.5625 0
0.46875 0.5625 0
0.4375 0.59375 0
0.46875 0.59375 0
0.46875 0.5625 0
0.5 0.5625 0
0.46875 0.59375 0
0.5 0.59375 0
0.4375 0.59375 0
0.46875 0.59375 0
0.4375 0.625 0
0.46875 0.625 0
0.46875 0.59375 0
0.5 0.59375 0
0.46875 0.625 0
0.5 0.625 0
0.25 0.625 0
0.28125 0.625 0
0.25 0.65625 0
0.28125 0.65625 0
0.28125 0.625 0
0.3125 0.625 0
0.28125 0.65625 0
0.3125 0.65625 0
0.25 0.65625 0
0.28125 0.65625 0
0.25 0.6875 0
0.28125 0.6875 0
0.28125 0.65625 0
0.3125 0.65625 0
0.28125 0.6875 0
0.3125 0.6875 0
0.3125 0.625 0
0.34375 0.625 0
0.3125 0.65625 0
0.34375 0.65625 0
0.34375 0.625 0
0.375 0.625 0
0.34375 0.65625 0
0.375 0.65625 0
0.3125 0.65625 0
0.34375 0.65625 0
0.3125 0.6875 0
0.34375 0.6875 0
0.34375 0.65625 0
0.375 0.65625 0
0.34375 0.6875 0
0.375 0.6875 0
0.25 0.6875 0
0.28125 0.6875 0
0.25 0.71875 0
0.28125 0.71875 0
0.28125 0.6875 0
0.3125 0.6875 0
0.28125 0.71875 0
0.3125 0.71875 0
0.25 0.71875 0
0.28125 0.71875 0
0.25 0.75 0
0.28125 0.75 0
0.28125 0.71875 0
0.3125 0.71875 0
0.28125 0.75 0
0.3125 0.75 0
0.3125 0.6875 0
0.34375 0.6875 0
0.3125 0.71875 0
0.34375 0.71875 0
0.34375 0.6875 0
0.375 0.6875 0
0.34375 0.71875 0
0.375 0.71875 0
0.3125 0.71875 0
0.34375 0.71875 0
0.3125 0.75 0
0.34375 0.75 0
0.34375 0.71875 0
0.375 0.71875 0
0.34375 0.75 0
0.375 0.75 0
0.375 0.625 0
0.40625 0.625 0
0.375 0.65625 0
0.40625 0.65625 0
0.40625 0.625 0
0.4375 0.625 0
0.40625 0.65625 0
0.4375 0.65625 0
0.375 0.65625 0
0.40625 0.65625 0
0.375 0.6875 0
0.40625 0.6875 0
0.40625 0.65625 0
0.4375 0.65625 0
0.40625 0.6875 0
0.4375 0.6875 0
0.4375 0.625 0
0.46875 0.625 0
0.4375 0.65625 0
0.46875 0.65625 0
0.46875 0.625 0
0.5 0.625 0
0.46875 0.65625 0
0.5 0.65625 0
0.4375 0.65625 0
0.46875 0.65625 0
0.4375 0.6875 0
0.46875 0.6875 0
0.46875 0.65625 0
0.5 0.65625 0
0.46875 0.6875 0
0.5 0.6875 0
0.375 0.6875 0
0.40625 0.6875 0
0.375 0.71875 0
0.40625 0.71875 0
0.40625 0.6875 0
0.4375 0.6875 0
0.40625 0.71875 0
0.4375 0.71875 0
0.375 0.71875 0
0.40625 0.71875 0
0.375 0.75 0
0.40625 0.75 0
0.40625 0.71875 0
0.4375 0.71875 0
0.40625 0.75 0
0.4375 0.75 0
0.4375 0.6875 0
0.46875 0.6875 0
0.4375 0.71875 0
0.46875 0.71875 0
0.46875 0.6875 0
0.5 0.6875 0
0.46875 0.71875 0
0.5 0.71875 0
0.4375 0.71875 0
0.46875 0.71875 0
0.4375 0.75 0
0.46875 0.75 0
0.46875 0.71875 0
0.5 0.71875 0
0.46875 0.75 0
0.5 0.75 0
0 0.75 0
0.03125 0.75 0
0 0.78125 0
0.03125 0.78125 0
0.03125 0.75 0
0.0625 0.75 0
0.03125 0.78125 0
0.0625 0.78125 0
0 0.78125 0
0.03125 0.78125 0
0 0.8125 0
0.03125 0.8125 0
0.03125 0.78125 0
0.0625 0.78125 0
0.03125 0.8125 0
0.0625 0.8125 0
0.0625 0.75 0
0.09375 0.75 0
0.0625 0.78125 0
0.09375 0.78125 0
0.09375 0.75 0
0.125 0.75 0
0.09375 0.78125 0
0.125 0.78125 0
0.0625 0.78125 0
0.09375 0.78125 0
0.0625 0.8125 0
0.09375 0.8125 0
0.09375 0.78125 0
0.125 0.78125 0
0.09375 0.8125 0
0.125 0.8125 0
0 0.8125 0
0.03125 0.8125 0
0 0.84375 0
0.03125 0.84375 0
0.03125 0.8125 0
0.0625 0.8125 0
0.03125 0.84375 0
0.0625 0.84375 0
0 0.84375 0
0.03125 0.84375 0
0 0.875 0
0.03125 0.875 0
0.03125 0.84375 0
0.0625 0.84375 0
0.03125 0.875 0
0.0625 0.875 0
0.0625 0.8125 0
0.09375 0.8125 0
0.0625 0.84375 0
0.09375 0.84375 0
0.09375 0.8125 0
0.125 0.8125 0
0.09375 0.84375 0
0.125 0.84375 0
0.0625 0.84375 0
0.09375 0.84375 0
0.0625 0.875 0
0.09375 0.875 0
0.09375 0.84375 0
0.125 0.84375 0
0.09375 0.875 0
0.125 0.875 0
0.125 0.75 0
0.15625 0.75 0
0.125 0.78125 0
0.15625 0.78125 0
0.15625 0.75 0
0.1875 0.75 0
0.15625 0.78125 0
0.1875 0.78125 0
0.125 0.78125 0
0.15625 0.78125 0
0.125 0.8125 0
0.15625 0.8125 0
0.15625 0.78125 0
0.1875 0.78125 0
0.15625 0.8125 0
0.1875 0.8125 0
0.1875 0.75 0
0.21875 0.75 0
0.1875 0.78125 0
0.21875 0.78125 0
0.21875 0.75 0
0.25 0.75 0
0.21875 0.78125 0
0.25 0.78125 0
0.1875 0.78125 0
0.21875 0.78125 0
0.1875 0.8125 0
0.21875 0.8125 0
0.21875 0.78125 0
0.25 0.78125 0
0.21875 0.8125 0
0.25 0.8125 0
0.125 0.8125 0
0.15625 0.8125 0
0.125 0.84375 0
0.15625 0.84375 0
0.15625 0.8125 0
[...]
POINT_DATA 4096
SCALARS State_InstatPDEProblemContainer_0 double 1
LOOKUP_TABLE default
-0.000150059 -0.000150058 -0.000160562 -0.000160572 -0.000150058 -0.000150055 -0.000160572 -0.000160605 -0.000160562 -0.000160572 -0.000171024 -0.000171045 -0.000160572 -0.000160605 -0.000171045 -0.000171111 -0.000150055 -0.00015005 -0.000160605 -0.00016066 -0.00015005 -0.000150043 -0.00016066 -0.00016074 -0.000160605 -0.00016066 -0.000171111 -0.000171222 -0.00016066 -0.00016074 -0.000171222 -0.000171385 -0.000171024 -0.000171045 -0.000181403 -0.000181435 -0.000171045 -0.000171111 -0.000181435 -0.000181529 -0.000181403 -0.000181435 -0.000191663 -0.000191702 -0.000181435 -0.000181529 -0.000191702 -0.000191819 -0.000171111 -0.000171222 -0.000181529 -0.000181689 -0.000171222 -0.000171385 -0.000181689 -0.000181922 -0.000181529 -0.000181689 -0.000191819 -0.000192018 -0.000181689 -0.000181922 -0.000192018 -0.000192305 -0.000150043 -0.000150034 -0.00016074 -0.000160849 -0.000150034 -0.000150021 -0.000160849 -0.000160993 -0.00016074 -0.000160849 -0.000171385 -0.000171604 -0.000160849 -0.000160993 -0.000171604 -0.000171891 -0.000150021 -0.000150006 -0.000160993 -0.000161178 -0.000150006 -0.000149987 -0.000161178 -0.000161417 -0.000160993 -0.000161178 -0.000171891 -0.000172259 -0.000161178 -0.000161417 -0.000172259 -0.000172728 -0.000171385 -0.000171604 -0.000181922 -0.000182235 -0.000171604 -0.000171891 -0.000182235 -0.00018264 -0.000181922 -0.000182235 -0.000192305 -0.000192689 -0.000182235 -0.00018264 -0.000192689 -0.000193182 -0.000171891 -0.000172259 -0.00018264 -0.000183156 -0.000172259 -0.000172728 -0.000183156 -0.000183806 -0.00018264 -0.000183156 -0.000193182 -0.000193801 -0.000183156 -0.000183806 -0.000193801 -0.000194569 -0.000191663 -0.000191702 -0.00020177 -0.000201814 -0.000191702 -0.000191819 -0.000201814 -0.000201947 -0.00020177 -0.000201814 -0.000211698 -0.000211745 -0.000201814 -0.000201947 -0.000211745 -0.000211888 -0.000191819 -0.000192018 -0.000201947 -0.000202173 -0.000192018 -0.000192305 -0.000202173 -0.000202497 -0.000201947 -0.000202173 -0.000211888 -0.000212129 -0.000202173 -0.000202497 -0.000212129 -0.000212471 -0.000211698 -0.000211745 -0.000221429 -0.000221477 -0.000211745 -0.000211888 -0.000221477 -0.000221622 -0.000221429 -0.000221477 -0.00023095 -0.000230998 -0.000221477 -0.000221622 -0.000230998 -0.00023114 -0.000211888 -0.000212129 -0.000221622 -0.000221867 -0.000212129 -0.000212471 -0.000221867 -0.000222212 -0.000221622 -0.000221867 -0.00023114 -0.000231378 -0.000221867 -0.000222212 -0.000231378 -0.000231712 -0.000192305 -0.000192689 -0.000202497 -0.000202927 -0.000192689 -0.000193182 -0.000202927 -0.000203473 -0.000202497 -0.000202927 -0.000212471 -0.000212923 -0.000202927 -0.000203473 -0.000212923 -0.00021349 -0.000193182 -0.000193801 -0.000203473 -0.00020415 -0.000193801 -0.000194569 -0.00020415 -0.000204974 -0.000203473 -0.00020415 -0.00021349 -0.000214182 -0.00020415 -0.000204974 -0.000214182 -0.00021501 -0.000212471 -0.000212923 -0.000222212 -0.000222663 -0.000212923 -0.00021349 -0.000222663 -0.000223223 -0.000222212 -0.000222663 -0.000231712 -0.000232145 -0.000222663 -0.000223223 -0.000232145 -0.000232676 -0.00021349 -0.000214182 -0.000223223 -0.000223897 -0.000214182 -0.00021501 -0.000223897 -0.000224688 -0.000223223 -0.000223897 -0.000232676 -0.000233307 -0.000223897 -0.000224688 -0.000233307 -0.000234034 -0.000149987 -0.000149964 -0.000161417 -0.000161726 -0.000149964 -0.000149936 -0.000161726 -0.000162133 -0.000161417 -0.000161726 -0.000172728 -0.000173328 -0.000161726 -0.000162133 -0.000173328 -0.000174104 -0.000149936 -0.000149901 -0.000162133 -0.000162682 -0.000149901 -0.000149856 -0.000162682 -0.000163447 -0.000162133 -0.000162682 -0.000174104 -0.000175123 -0.000162682 -0.000163447 -0.000175123 -0.00017649 -0.000172728 -0.000173328 -0.000183806 -0.000184622 -0.000173328 -0.000174104 -0.000184622 -0.000185652 -0.000183806 -0.000184622 -0.000194569 -0.000195514 -0.000184622 -0.000185652 -0.000195514 -0.000196672 -0.000174104 -0.000175123 -0.000185652 -0.000186958 -0.000175123 -0.00017649 -0.000186958 -0.000188625 -0.000185652 -0.000186958 -0.000196672 -0.000198084 -0.000186958 -0.000188625 -0.000198084 -0.000199791 -0.000149856 -0.000149797 -0.000163447 -0.00016457 -0.000149797 -0.000149711 -0.00016457 -0.000166358 -0.000163447 -0.00016457 -0.00017649 -0.000178378 -0.00016457 -0.000166358 -0.000178378 -0.000181044 -0.000149711 -0.000149551 -0.000166358 -0.00016951 -0.000149551 -0.000149326 -0.00016951 -0.000176401 -0.000166358 -0.00016951 -0.000181044 -0.000184877 -0.00016951 -0.000176401 -0.000184877 -0.000188922 -0.00017649 -0.000178378 -0.000188625 -0.000190749 -0.000178378 -0.000181044 -0.000190749 -0.000193413 -0.000188625 -0.000190749 -0.000199791 -0.000201811 -0.000190749 -0.000193413 -0.000201811 -0.000204084 -0.000181044 -0.000184877 -0.000193413 -0.000196416 -0.000184877 -0.000188922 -0.000196416 -0.000199498 -0.000193413 -0.000196416 -0.000204084 -0.00020647 -0.000196416 -0.000199498 -0.00020647 -0.000208763 -0.000194569 -0.000195514 -0.000204974 -0.000205965 -0.000195514 -0.000196672 -0.000205965 -0.000207144 -0.000204974 -0.000205965 -0.00021501 -0.000215982 -0.000205965 -0.000207144 -0.000215982 -0.000217105 -0.000196672 -0.000198084 -0.000207144 -0.000208527 -0.000198084 -0.000199791 -0.000208527 -0.000210116 -0.000207144 -0.000208527 -0.000217105 -0.000218377 -0.000208527 -0.000210116 -0.000218377 -0.000219777 -0.00021501 -0.000215982 -0.000224688 -0.000225597 -0.000215982 -0.000217105 -0.000225597 -0.000226618 -0.000224688 -0.000225597 -0.000234034 -0.000234852 -0.000225597 -0.000226618 -0.000234852 -0.000235749 -0.000217105 -0.000218377 -0.000226618 -0.000227738 -0.000218377 -0.000219777 -0.000227738 -0.00022893 -0.000226618 -0.000227738 -0.000235749 -0.000236706 -0.000227738 -0.00022893 -0.000236706 -0.000237694 -0.000199791 -0.000201811 -0.000210116 -0.000211884 -0.000201811 -0.000204084 -0.000211884 -0.000213758 -0.000210116 -0.000211884 -0.000219777 -0.000221266 -0.000211884 -0.000213758 -0.000221266 -0.000222776 -0.000204084 -0.00020647 -0.000213758 -0.000215622 -0.00020647 -0.000208763 -0.000215622 -0.000217376 -0.000213758 -0.000215622 -0.000222776 -0.000224231 -0.000215622 -0.000217376 -0.000224231 -0.000225574 -0.000219777 -0.000221266 -0.00022893 -0.000230153 -0.000221266 -0.000222776 -0.000230153 -0.000231353 -0.00022893 -0.000230153 -0.000237694 -0.000238679 -0.000230153 -0.000231353 -0.000238679 -0.000239619 -0.000222776 -0.000224231 -0.000231353 -0.000232481 -0.000224231 -0.000225574 -0.000232481 -0.000233502 -0.000231353 -0.000232481 -0.000239619 -0.000240481 -0.000232481 -0.000233502 -0.000240481 -0.000241246 -0.00023095 -0.000230998 -0.000240257 -0.000240302 -0.000230998 -0.00023114 -0.000240302 -0.000240436 -0.000240257 -0.000240302 -0.000249349 -0.00024939 -0.000240302 -0.000240436 -0.00024939 -0.000249512 -0.00023114 -0.000231378 -0.000240436 -0.000240659 -0.000231378 -0.000231712 -0.000240659 -0.000240972 -0.000240436 -0.000240659 -0.000249512 -0.000249716 -0.000240659 -0.000240972 -0.000249716 -0.000249998 -0.000249349 -0.00024939 -0.000258232 -0.000258268 -0.00024939 -0.000249512 -0.000258268 -0.000258376 -0.000258232 -0.000258268 -0.000266916 -0.000266947 -0.000258268 -0.000258376 -0.000266947 -0.000267038 -0.000249512 -0.000249716 -0.000258376 -0.000258554 -0.000249716 -0.000249998 -0.000258554 -0.000258801 -0.000258376 -0.000258554 -0.000267038 -0.000267187 -0.000258554 -0.000258801 -0.000267187 -0.000267394 -0.000231712 -0.000232145 -0.000240972 -0.000241373 -0.000232145 -0.000232676 -0.000241373 -0.00024186 -0.000240972 -0.000241373 -0.000249998 -0.000250358 -0.000241373 -0.00024186 -0.000250358 -0.00025079 -0.000232676 -0.000233307 -0.00024186 -0.00024243 -0.000233307 -0.000234034 -0.00024243 -0.000243077 -0.00024186 -0.00024243 -0.00025079 -0.00025129 -0.00024243 -0.000243077 -0.00025129 -0.000251849 -0.000249998 -0.000250358 -0.000258801 -0.000259113 -0.000250358 -0.00025079 -0.000259113 -0.000259484 -0.000258801 -0.000259113 -0.000267394 -0.000267653 -0.000259113 -0.000259484 -0.000267653 -0.000267959 -0.00025079 -0.00025129 -0.000259484 -0.000259908 -0.00025129 -0.000251849 -0.000259908 -0.000260375 -0.000259484 -0.000259908 -0.000267959 -0.000268305 -0.000259908 -0.000260375 -0.000268305 -0.000268681 -0.000266916 -0.000266947 -0.000275415 -0.00027544 -0.000266947 -0.000267038 -0.00027544 -0.000275511 -0.000275415 -0.00027544 -0.000283747 -0.000283764 -0.00027544 -0.000275511 -0.000283764 -0.000283815 -0.000267038 -0.000267187 -0.000275511 -0.00027563 -0.000267187 -0.000267394 -0.00027563 -0.000275792 -0.000275511 -0.00027563 -0.000283815 -0.000283898 -0.00027563 -0.000275792 -0.000283898 -0.000284012 -0.000283747 -0.000283764 -0.000291934 -0.000291943 -0.000283764 -0.000283815 -0.000291943 -0.00029197 -0.000291934 -0.000291943 -0.0003 -0.0003 -0.000291943 -0.00029197 -0.0003 -0.0003 -0.000283815 -0.000283898 -0.00029197 -0.000292014 -0.000283898 -0.000284012 -0.000292014 -0.000292075 -0.00029197 -0.000292014 -0.0003 -0.0003 -0.000292014 -0.000292075 -0.0003 -0.0003 -0.000267394 -0.000267653 -0.000275792 -0.000275994 -0.000267653 -0.000267959 -0.000275994 -0.000276232 -0.000275792 -0.000275994 -0.000284012 -0.000284154 -0.000275994 -0.000276232 -0.000284154 -0.000284319 -0.000267959 -0.000268305 -0.000276232 -0.000276498 -0.000268305 -0.000268681 -0.000276498 -0.000276784 -0.000276232 -0.000276498 -0.000284319 -0.000284503 -0.000276498 -0.000276784 -0.000284503 -0.000284699 -0.000284012 -0.000284154 -0.000292075 -0.00029215 -0.000284154 -0.000284319 -0.00029215 -0.000292237 -0.000292075 -0.00029215 -0.0003 -0.0003 -0.00029215 -0.000292237 -0.0003 -0.0003 -0.000284319 -0.000284503 -0.000292237 -0.000292334 -0.000284503 -0.000284699 -0.000292334 -0.000292436 -0.000292237 -0.000292334 -0.0003 -0.0003 -0.000292334 -0.000292436 -0.0003 -0.0003 -0.000234034 -0.000234852 -0.000243077 -0.000243791 -0.000234852 -0.000235749 -0.000243791 -0.000244556 -0.000243077 -0.000243791 -0.000251849 -0.000252454 -0.000243791 -0.000244556 -0.000252454 -0.00025309 -0.000235749 -0.000236706 -0.000244556 -0.000245353 -0.000236706 -0.000237694 -0.000245353 -0.000246155 -0.000244556 -0.000245353 -0.00025309 -0.000253737 -0.000245353 -0.000246155 -0.000253737 -0.000254373 -0.000251849 -0.000252454 -0.000260375 -0.000260874 -0.000252454 -0.00025309 -0.000260874 -0.000261388 -0.000260375 -0.000260874 -0.000268681 -0.000269076 -0.000260874 -0.000261388 -0.000269076 -0.000269477 -0.00025309 -0.000253737 -0.000261388 -0.0002619 -0.000253737 -0.000254373 -0.0002619 -0.000262391 -0.000261388 -0.0002619 -0.000269477 -0.000269868 -0.0002619 -0.000262391 -0.000269868 -0.000270233 -0.000237694 -0.000238679 -0.000246155 -0.000246933 -0.000238679 -0.000239619 -0.000246933 -0.000247656 -0.000246155 -0.000246933 -0.000254373 -0.000254974 -0.000246933 -0.000247656 -0.000254974 -0.000255517 -0.000239619 -0.000240481 -0.000247656 -0.000248302 -0.000240481 -0.000241246 -0.000248302 -0.00024886 -0.000247656 -0.000248302 -0.000255517 -0.000255987 -0.000248302 -0.00024886 -0.000255987 -0.000256378 -0.000254373 -0.000254974 -0.000262391 -0.000262841 -0.000254974 -0.000255517 -0.000262841 -0.000263236 -0.000262391 -0.000262841 -0.000270233 -0.000270559 -0.000262841 -0.000263236 -0.000270559 -0.000270832 -0.000255517 -0.000255987 -0.000263236 -0.000263563 -0.000255987 -0.000256378 -0.000263563 -0.00026382 -0.000263236 -0.000263563 -0.000270832 -0.000271045 -0.000263563 -0.00026382 -0.000271045 -0.000271198 -0.000268681 -0.000269076 -0.000276784 -0.000277081 -0.000269076 -0.000269477 -0.000277081 -0.000277377 -0.000276784 -0.000277081 -0.000284699 -0.0002849 -0.000277081 -0.000277377 -0.0002849 -0.000285097 -0.000269477 -0.000269868 -0.000277377 -0.00027766 -0.000269868 -0.000270233 -0.00027766 -0.000277917 -0.000277377 -0.00027766 -0.000285097 -0.000285282 -0.00027766 -0.000277917 -0.000285282 -0.000285445 -0.000284699 -0.0002849 -0.000292436 -0.00029254 -0.0002849 -0.000285097 -0.00029254 -0.00029264 -0.000292436 -0.00029254 -0.0003 -0.0003 -0.00029254 -0.00029264 -0.0003 -0.0003 -0.000285097 -0.000285282 -0.00029264 -0.000292732 -0.000285282 -0.000285445 -0.000292732 -0.000292811 -0.00029264 -0.000292732 -0.0003 -0.0003 -0.000292732 -0.000292811 -0.0003 -0.0003 -0.000270233 -0.000270559 -0.000277917 -0.000278137 -0.000270559 -0.000270832 -0.000278137 -0.000278313 -0.000277917 -0.000278137 -0.000285445 -0.000285579 -0.000278137 -0.000278313 -0.000285579 -0.000285678 -0.000270832 -0.000271045 -0.000278313 -0.000278438 -0.000271045 -0.000271198 -0.000278438 -0.000278514 -0.000278313 -0.000278438 -0.000285678 -0.000285739 -0.000278438 -0.000278514 -0.000285739 -0.000285762 -0.000285445 -0.000285579 -0.000292811 -0.000292873 -0.000285579 -0.000285678 -0.000292873 -0.000292914 -0.000292811 -0.000292873 -0.0003 -0.0003 -0.000292873 -0.000292914 -0.0003 -0.0003 -0.000285678 -0.000285739 -0.000292914 -0.000292934 -0.000285739 -0.000285762 -0.000292934 -0.000292932 -0.000292914 -0.000292934 -0.0003 -0.0003 -0.000292934 -0.000292932 -0.0003 -0.0003 -0.000149326 -0.000172222 -0.000176401 -0.000181954 -0.000172222 -0.000185816 -0.000181954 -0.000189589 -0.000176401 -0.000181954 -0.000188922 -0.000193128 -0.000181954 -0.000189589 -0.000193128 -0.000197174 -0.000185816 -0.000195057 -0.000189589 -0.000196784 -0.000195057 -0.000202053 -0.000196784 -0.000202932 -0.000189589 -0.000196784 -0.000197174 -0.000201804 -0.000196784 -0.000202932 -0.000201804 -0.000206409 -0.000188922 -0.000193128 -0.000199498 -0.000202346 -0.000193128 -0.000197174 -0.000202346 -0.00020521 -0.000199498 -0.000202346 -0.000208763 -0.0002109 -0.000202346 -0.00020521 -0.0002109 -0.000212959 -0.000197174 -0.000201804 -0.00020521 -0.000208247 -0.000201804 -0.000206409 -0.000208247 -0.000211491 -0.00020521 -0.000208247 -0.000212959 -0.000215111 -0.000208247 -0.000211491 -0.000215111 -0.0002174 -0.000202053 -0.000207629 -0.000202932 -0.000208105 -0.000207629 -0.000212191 -0.000208105 -0.00021246 -0.000202932 -0.000208105 -0.000206409 -0.00021065 -0.000208105 -0.00021246 -0.00021065 -0.000214422 -0.000212191 -0.000215972 -0.00021246 -0.000216132 -0.000215972 -0.000219119 -0.000216132 -0.000219225 -0.00021246 -0.000216132 -0.000214422 -0.000217716 -0.000216132 -0.000219225 -0.000217716 -0.000220557 -0.000206409 -0.00021065 -0.000211491 -0.000214717 -0.00021065 -0.000214422 -0.000214717 -0.000217759 -0.000211491 -0.000214717 -0.0002174 -0.000219771 -0.000214717 -0.000217759 -0.000219771 -0.000222112 -0.000214422 -0.000217716 -0.000217759 -0.00022053 -0.000217716 -0.000220557 -0.00022053 -0.000222993 -0.000217759 -0.00022053 -0.000222112 -0.00022433 -0.00022053 -0.000222993 -0.00022433 -0.000226365 -0.000208763 -0.0002109 -0.000217376 -0.000218987 -0.0002109 -0.000212959 -0.000218987 -0.000220519 -0.000217376 -0.000218987 -0.000225574 -0.000226793 -0.000218987 -0.000220519 -0.000226793 -0.000227933 -0.000212959 -0.000215111 -0.000220519 -0.000222072 -0.000215111 -0.0002174 -0.000222072 -0.000223712 -0.000220519 -0.000222072 -0.000227933 -0.000229063 -0.000222072 -0.000223712 -0.000229063 -0.000230235 -0.000225574 -0.000226793 -0.000233502 -0.000234416 -0.000226793 -0.000227933 -0.000234416 -0.000235254 -0.000233502 -0.000234416 -0.000241246 -0.000241916 -0.000234416 -0.000235254 -0.000241916 -0.000242515 -0.000227933 -0.000229063 -0.000235254 -0.000236064 -0.000229063 -0.000230235 -0.000236064 -0.000236891 -0.000235254 -0.000236064 -0.000242515 -0.000243079 -0.000236064 -0.000236891 -0.000243079 -0.000243643 -0.0002174 -0.000219771 -0.000223712 -0.000225431 -0.000219771 -0.000222112 -0.000225431 -0.000227179 -0.000223712 -0.000225431 -0.000230235 -0.000231468 -0.000225431 -0.000227179 -0.000231468 -0.000232742 -0.000222112 -0.00022433 -0.000227179 -0.000228889 -0.00022433 -0.000226365 -0.000228889 -0.000230503 -0.000227179 -0.000228889 -0.000232742 -0.000234019 -0.000228889 -0.000230503 -0.000234019 -0.000235254 -0.000230235 -0.000231468 -0.000236891 -0.000237757 -0.000231468 -0.000232742 -0.000237757 -0.000238661 -0.000236891 -0.000237757 -0.000243643 -0.000244229 -0.000237757 -0.000238661 -0.000244229 -0.000244845 -0.000232742 -0.000234019 -0.000238661 -0.000239582 -0.000234019 -0.000235254 -0.000239582 -0.000240493 -0.000238661 -0.000239582 -0.000244845 -0.000245482 -0.000239582 -0.000240493 -0.000245482 -0.000246125 -0.000219119 -0.000221733 -0.000219225 -0.000221817 -0.000221733 -0.000223888 -0.000221817 -0.000223967 -0.000219225 -0.000221817 -0.000220557 -0.000222979 -0.000221817 -0.000223967 -0.000222979 -0.000225013 -0.000223888 -0.000225637 -0.000223967 -0.000225722 -0.000225637 -0.00022702 -0.000225722 -0.000227116 -0.000223967 -0.000225722 -0.000225013 -0.000226688 -0.000225722 -0.000227116 -0.000226688 -0.000228027 -0.000220557 -0.000222979 -0.000222993 -0.000225139 -0.000222979 -0.000225013 -0.000225139 -0.000226972 -0.000222993 -0.000225139 -0.000226365 -0.000228182 -0.000225139 -0.000226972 -0.000228182 -0.000229763 -0.000225013 -0.000226688 -0.000226972 -0.0002285 -0.000226688 -0.000228027 -0.0002285 -0.000229733 -0.000226972 -0.0002285 -0.000229763 -0.0002311 -0.0002285 -0.000229733 -0.0002311 -0.000232192 -0.00022702 -0.000228068 -0.000227116 -0.000228175 -0.000228068 -0.000228801 -0.000228175 -0.000228918 -0.000227116 -0.000228175 -0.000228027 -0.00022905 -0.000228175 -0.000228918 -0.00022905 -0.000229771 -0.000228801 -0.000229236 -0.000228918 -0.000229359 -0.000229236 -0.00022938 -0.000229359 -0.000229505 -0.000228918 -0.000229359 -0.000229771 -0.000230199 -0.000229359 -0.000229505 -0.000230199 -0.000230342 -0.000228027 -0.00022905 -0.000229733 -0.000230682 -0.00022905 -0.000229771 -0.000230682 -0.000231353 -0.000229733 -0.000230682 -0.000232192 -0.000233038 -0.000230682 -0.000231353 -0.000233038 -0.00023364 -0.000229771 -0.000230199 -0.000231353 -0.000231754 -0.000230199 -0.000230342 -0.000231754 -0.000231887 -0.000231353 -0.000231754 -0.00023364 -0.000234001 -0.000231754 -0.000231887 -0.000234001 -0.000234121 -0.000226365 -0.000228182 -0.000230503 -0.00023198 -0.000228182 -0.000229763 -0.00023198 -0.00023329 -0.000230503 -0.00023198 -0.000235254 -0.000236409 -0.00023198 -0.00023329 -0.000236409 -0.000237454 -0.000229763 -0.0002311 -0.00023329 -0.000234416 -0.0002311 -0.000232192 -0.000234416 -0.000235345 -0.00023329 -0.000234416 -0.000237454 -0.000238367 -0.000234416 -0.000235345 -0.000238367 -0.00023913 -0.000235254 -0.000236409 -0.000240493 -0.000241363 -0.000236409 -0.000237454 -0.000241363 -0.000242165 -0.000240493 -0.000241363 -0.000246125 -0.000246752 -0.000241363 -0.000242165 -0.000246752 -0.000247341 -0.000237454 -0.000238367 -0.000242165 -0.000242876 -0.000238367 -0.00023913 -0.000242876 -0.000243479 -0.000242165 -0.000242876 -0.000247341 -0.000247872 -0.000242876 -0.000243479 -0.000247872 -0.000248329 -0.000232192 -0.000233038 -0.000235345 -0.000236073 -0.000233038 -0.00023364 -0.000236073 -0.000236594 -0.000235345 -0.000236073 -0.00023913 -0.000239733 -0.000236073 -0.000236594 -0.000239733 -0.000240168 -0.00023364 -0.000234001 -0.000236594 -0.000236908 -0.000234001 -0.000234121 -0.000236908 -0.000237012 -0.000236594 -0.000236908 -0.000240168 -0.000240431 -0.000236908 -0.000237012 -0.000240431 -0.000240518 -0.00023913 -0.000239733 -0.000243479 -0.00024396 -0.000239733 -0.000240168 -0.00024396 -0.000244309 -0.000243479 -0.00024396 -0.000248329 -0.000248697 -0.00024396 -0.000244309 -0.000248697 -0.000248967 -0.000240168 -0.000240431 -0.000244309 -0.000244522 -0.000240431 -0.000240518 -0.000244522 -0.000244593 -0.000244309 -0.000244522 -0.000248967 -0.000249132 -0.000244522 -0.000244593 -0.000249132 -0.000249187 -0.000241246 -0.000241916 -0.00024886 -0.000249334 -0.000241916 -0.000242515 -0.000249334 -0.000249743 -0.00024886 -0.000249334 -0.000256378 -0.000256694 -0.000249334 -0.000249743 -0.000256694 -0.000256951 -0.000242515 -0.000243079 -0.000249743 -0.000250113 -0.000243079 -0.000243643 -0.000250113 -0.000250474