# vtk DataFile Version 3.0
#This file was generated by the deal.II library on 2018/7/10 at 10:46:56
ASCII
DATASET UNSTRUCTURED_GRID

POINTS 4096 double
0 0.5 0
0.03125 0.5 0
0 0.53125 0
0.03125 0.53125 0
0.03125 0.5 0
0.0625 0.5 0
0.03125 0.53125 0
0.0625 0.53125 0
0 0.53125 0
0.03125 0.53125 0
0 0.5625 0
0.03125 0.5625 0
0.03125 0.53125 0
0.0625 0.53125 0
0.03125 0.5625 0
0.0625 0.5625 0
0.0625 0.5 0
0.09375 0.5 0
0.0625 0.53125 0
0.09375 0.53125 0
0.09375 0.5 0
0.125 0.5 0
0.09375 0.53125 0
0.125 0.53125 0
0.0625 0.53125 0
0.09375 0.53125 0
0.0625 0.5625 0
0.09375 0.5625 0
0.09375 0.53125 0
0.125 0.53125 0
0.09375 0.5625 0
0.125 0.5625 0
0 0.5625 0
0.03125 0.5625 0
0 0.59375 0
0.03125 0.59375 0
0.03125 0.5625 0
0.0625 0.5625 0
0.03125 0.59375 0
0.0625 0.59375 0
0 0.59375 0
0.03125 0.59375 0
0 0.625 0
0.03125 0.625 0
0.03125 0.59375 0
0.0625 0.59375 0
0.03125 0.625 0
0.0625 0.625 0
0.0625 0.5625 0
0.09375 0.5625 0
0.0625 0.59375 0
0.09375 0.59375 0
0.09375 0.5625 0
0.125 0.5625 0
0.09375 0.59375 0
0.125 0.59375 0
0.0625 0.59375 0
0.09375 0.59375 0
0.0625 0.625 0
0.09375 0.625 0
0.09375 0.59375 0
0.125 0.59375 0
0.09375 0.625 0
0.125 0.625 0
0.125 0.5 0
0.15625 0.5 0
0.125 0.53125 0
0.15625 0.53125 0
0.15625 0.5 0
0.1875 0.5 0
0.15625 0.53125 0
0.1875 0.53125 0
0.125 0.53125 0
0.15625 0.53125 0
0.125 0.5625 0
0.15625 0.5625 0
0.15625 0.53125 0
0.1875 0.53125 0
0.15625 0.5625 0
0.1875 0.5625 0
0.1875 0.5 0
0.21875 0.5 0
0.1875 0.53125 0
0.21875 0.53125 0
0.21875 0.5 0
0.25 0.5 0
0.21875 0.53125 0
0.25 0.53125 0
0.1875 0.53125 0
0.21875 0.53125 0
0.1875 0.5625 0
0.21875 0.5625 0
0.21875 0.53125 0
0.25 0.53125 0
0.21875 0.5625 0
0.25 0.5625 0
0.125 0.5625 0
0.15625 0.5625 0
0.125 0.59375 0
0.15625 0.59375 0
0.15625 0.5625 0
0.1875 0.5625 0
0.15625 0.59375 0
0.1875 0.59375 0
0.125 0.59375 0
0.15625 0.59375 0
0.125 0.625 0
0.15625 0.625 0
0.15625 0.59375 0
0.1875 0.59375 0
0.15625 0.625 0
0.1875 0.625 0
0.1875 0.5625 0
0.21875 0.5625 0
0.1875 0.59375 0
0.21875 0.59375 0
0.21875 0.5625 0
0.25 0.5625 0
0.21875 0.59375 0
0.25 0.59375 0
0.1875 0.59375 0
0.21875 0.59375 0
0.1875 0.625 0
0.21875 0.625 0
0.21875 0.59375 0
0.25 0.59375 0
0.21875 0.625 0
0.25 0.625 0
0 0.625 0
0.03125 0.625 0
0 0.65625 0
0.03125 0.65625 0
0.03125 0.625 0
0.0625 0.625 0
0.03125 0.65625 0
0.0625 0.65625 0
0 0.65625 0
0.03125 0.65625 0
0 0.6875 0
0.03125 0.6875 0
0.03125 0.65625 0
0.0625 0.65625 0
0.03125 0.6875 0
0.0625 0.6875 0
0.0625 0.625 0
0.09375 0.625 0
0.0625 0.65625 0
0.09375 0.65625 0
0.09375 0.625 0
0.125 0.625 0
0.09375 0.65625 0
0.125 0.65625 0
0.0625 0.65625 0
0.09375 0.65625 0
0.0625 0.6875 0
0.09375 0.6875 0
0.09375 0.65625 0
0.125 0.65625 0
0.09375 0.6875 0
0.125 0.6875 0
0 0.6875 0
0.03125 0.6875 0
0 0.71875 0
0.03125 0.71875 0
0.03125 0.6875 0
0.0625 0.6875 0
0.03125 0.71875 0
0.0625 0.71875 0
0 0.71875 0
0.03125 0.71875 0
0 0.75 0
0.03125 0.75 0
0.03125 0.71875 0
0.0625 0.71875 0
0.03125 0.75 0
0.0625 0.75 0
0.0625 0.6875 0
0.09375 0.6875 0
0.0625 0.71875 0
0.09375 0.71875 0
0.09375 0.6875 0
0.125 0.6875 0
0.09375 0.71875 0
0.125 0.71875 0
0.0625 0.71875 0
0.09375 0.71875 0
0.0625 0.75 0
0.09375 0.75 0
0.09375 0.71875 0
0.125 0.71875 0
0.09375 0.75 0
0.125 0.75 0
0.125 0.625 0
0.15625 0.625 0
0.125 0.65625 0
0.15625 0.65625 0
0.15625 0.625 0
0.1875 0.625 0
0.15625 0.65625 0
0.1875 0.65625 0
0.125 0.65625 0
0.15625 0.65625 0
0.125 0.6875 0
0.15625 0.6875 0
0.15625 0.65625 0
0.1875 0.65625 0
0.15625 0.6875 0
0.1875 0.6875 0
0.1875 0.625 0
0.21875 0.625 0
0.1875 0.65625 0
0.21875 0.65625 0
0.21875 0.625 0
0.25 0.625 0
0.21875 0.65625 0
0.25 0.65625 0
0.1875 0.65625 0
0.21875 0.65625 0
0.1875 0.6875 0
0.21875 0.6875 0
0.21875 0.65625 0
0.25 0.65625 0
0.21875 0.6875 0
0.25 0.6875 0
0.125 0.6875 0
0.15625 0.6875 0
0.125 0.71875 0
0.15625 0.71875 0
0.15625 0.6875 0
0.1875 0.6875 0
0.15625 0.71875 0
0.1875 0.71875 0
0.125 0.71875 0
0.15625 0.71875 0
0.125 0.75 0
0.15625 0.75 0
0.15625 0.71875 0
0.1875 0.71875 0
0.15625 0.75 0
0.1875 0.75 0
0.1875 0.6875 0
0.21875 0.6875 0
0.1875 0.71875 0
0.21875 0.71875 0
0.21875 0.6875 0
0.25 0.6875 0
0.21875 0.71875 0
0.25 0.71875 0
0.1875 0.71875 0
0.21875 0.71875 0
0.1875 0.75 0
0.21875 0.75 0
0.21875 0.71875 0
0.25 0.71875 0
0.21875 0.75 0
0.25 0.75 0
0.25 0.5 0
0.28125 0.5 0
0.25 0.53125 0
0.28125 0.53125 0
0.28125 0.5 0
0.3125 0.5 0
0.28125 0.53125 0
0.3125 0.53125 0
0.25 0.53125 0
0.28125 0.53125 0
0.25 0.5625 0
0.28125 0.5625 0
0.28125 0.53125 0
0.3125 0.53125 0
0.28125 0.5625 0
0.3125 0.5625 0
0.3125 0.5 0
0.34375 0.5 0
0.3125 0.53125 0
0.34375 0.53125 0
0.34375 0.5 0
0.375 0.5 0
0.34375 0.53125 0
0.375 0.53125 0
0.3125 0.53125 0
0.34375 0.53125 0
0.3125 0.5625 0
0.34375 0.5625 0
0.34375 0.53125 0
0.375 0.53125 0
0.34375 0.5625 0
0.375 0.5625 0
0.25 0.5625 0
0.28125 0.5625 0
0.25 0.59375 0
0.28125 0.59375 0
0.28125 0.5625 0
0.3125 0.5625 0
0.28125 0.59375 0
0.3125 0.59375 0
0.25 0.59375 0
0.28125 0.59375 0
0.25 0.625 0
0.28125 0.625 0
0.28125 0.59375 0
0.3125 0.59375 0
0.28125 0.625 0
0.3125 0.625 0
0.3125 0.5625 0
0.34375 0.5625 0
0.3125 0.59375 0
0.34375 0.59375 0
0.34375 0.5625 0
0.375 0.5625 0
0.34375 0.59375 0
0.375 0.59375 0
0.3125 0.59375 0
0.34375 0.59375 0
0.3125 0.625 0
0.34375 0.625 0
0.34375 0.59375 0
0.375 0.59375 0
0.34375 0.625 0
0.375 0.625 0
0.375 0.5 0
0.40625 0.5 0
0.375 0.53125 0
0.40625 0.53125 0
0.40625 0.5 0
0.4375 0.5 0
0.40625 0.53125 0
0.4375 0.53125 0
0.375 0.53125 0
0.40625 0.53125 0
0.375 0.5625 0
0.40625 0.5625 0
0.40625 0.53125 0
0.4375 0.53125 0
0.40625 0.5625 0
0.4375 0.5625 0
0.4375 0.5 0
0.46875 0.5 0
0.4375 0.53125 0
0.46875 0.53125 0
0.46875 0.5 0
0.5 0.5 0
0.46875 0.53125 0
0.5 0.53125 0
0.4375 0.53125 0
0.46875 0.53125 0
0.4375 0.5625 0
0.46875 0.5625 0
0.46875 0.53125 0
0.5 0.53125 0
0.46875 0.5625 0
0.5 0.5625 0
0.375 0.5625 0
0.40625 0.5625 0
0.375 0.59375 0
0.40625 0.59375 0
0.40625 0.5625 0
0.4375 0.5625 0
0.40625 0.59375 0
0.4375 0.59375 0
0.375 0.59375 0
0.40625 0.59375 0
0.375 0.625 0
0.40625 0.625 0
0.40625 0.59375 0
0.4375 0.59375 0
0.40625 0.625 0
0.4375 0.625 0
0.4375 0.5625 0
0.46875 0.5625 0
0.4375 0.59375 0
0.46875 0.59375 0
0.46875 0.5625 0
0.5 0.5625 0
0.46875 0.59375 0
0.5 0.59375 0
0.4375 0.59375 0
0.46875 0.59375 0
0.4375 0.625 0
0.46875 0.625 0
0.46875 0.59375 0
0.5 0.59375 0
0.46875 0.625 0
0.5 0.625 0
0.25 0.625 0
0.28125 0.625 0
0.25 0.65625 0
0.28125 0.65625 0
0.28125 0.625 0
0.3125 0.625 0
0.28125 0.65625 0
0.3125 0.65625 0
0.25 0.65625 0
0.28125 0.65625 0
0.25 0.6875 0
0.28125 0.6875 0
0.28125 0.65625 0
0.3125 0.65625 0
0.28125 0.6875 0
0.3125 0.6875 0
0.3125 0.625 0
0.34375 0.625 0
0.3125 0.65625 0
0.34375 0.65625 0
0.34375 0.625 0
0.375 0.625 0
0.34375 0.65625 0
0.375 0.65625 0
0.3125 0.65625 0
0.34375 0.65625 0
0.3125 0.6875 0
0.34375 0.6875 0
0.34375 0.65625 0
0.375 0.65625 0
0.34375 0.6875 0
0.375 0.6875 0
0.25 0.6875 0
0.28125 0.6875 0
0.25 0.71875 0
0.28125 0.71875 0
0.28125 0.6875 0
0.3125 0.6875 0
0.28125 0.71875 0
0.3125 0.71875 0
0.25 0.71875 0
0.28125 0.71875 0
0.25 0.75 0
0.28125 0.75 0
0.28125 0.71875 0
0.3125 0.71875 0
0.28125 0.75 0
0.3125 0.75 0
0.3125 0.6875 0
0.34375 0.6875 0
0.3125 0.71875 0
0.34375 0.71875 0
0.34375 0.6875 0
0.375 0.6875 0
0.34375 0.71875 0
0.375 0.71875 0
0.3125 0.71875 0
0.34375 0.71875 0
0.3125 0.75 0
0.34375 0.75 0
0.34375 0.71875 0
0.375 0.71875 0
0.34375 0.75 0
0.375 0.75 0
0.375 0.625 0
0.40625 0.625 0
0.375 0.65625 0
0.40625 0.65625 0
0.40625 0.625 0
0.4375 0.625 0
0.40625 0.65625 0
0.4375 0.65625 0
0.375 0.65625 0
0.40625 0.65625 0
0.375 0.6875 0
0.40625 0.6875 0
0.40625 0.65625 0
0.4375 0.65625 0
0.40625 0.6875 0
0.4375 0.6875 0
0.4375 0.625 0
0.46875 0.625 0
0.4375 0.65625 0
0.46875 0.65625 0
0.46875 0.625 0
0.5 0.625 0
0.46875 0.65625 0
0.5 0.65625 0
0.4375 0.65625 0
0.46875 0.65625 0
0.4375 0.6875 0
0.46875 0.6875 0
0.46875 0.65625 0
0.5 0.65625 0
0.46875 0.6875 0
0.5 0.6875 0
0.375 0.6875 0
0.40625 0.6875 0
0.375 0.71875 0
0.40625 0.71875 0
0.40625 0.6875 0
0.4375 0.6875 0
0.40625 0.71875 0
0.4375 0.71875 0
0.375 0.71875 0
0.40625 0.71875 0
0.375 0.75 0
0.40625 0.75 0
0.40625 0.71875 0
0.4375 0.71875 0
0.40625 0.75 0
0.4375 0.75 0
0.4375 0.6875 0
0.46875 0.6875 0
0.4375 0.71875 0
0.46875 0.71875 0
0.46875 0.6875 0
0.5 0.6875 0
0.46875 0.71875 0
0.5 0.71875 0
0.4375 0.71875 0
0.46875 0.71875 0
0.4375 0.75 0
0.46875 0.75 0
0.46875 0.71875 0
0.5 0.71875 0
0.46875 0.75 0
0.5 0.75 0
0 0.75 0
0.03125 0.75 0
0 0.78125 0
0.03125 0.78125 0
0.03125 0.75 0
0.0625 0.75 0
0.03125 0.78125 0
0.0625 0.78125 0
0 0.78125 0
0.03125 0.78125 0
0 0.8125 0
0.03125 0.8125 0
0.03125 0.78125 0
0.0625 0.78125 0
0.03125 0.8125 0
0.0625 0.8125 0
0.0625 0.75 0
0.09375 0.75 0
0.0625 0.78125 0
0.09375 0.78125 0
0.09375 0.75 0
0.125 0.75 0
0.09375 0.78125 0
0.125 0.78125 0
0.0625 0.78125 0
0.09375 0.78125 0
0.0625 0.8125 0
0.09375 0.8125 0
0.09375 0.78125 0
0.125 0.78125 0
0.09375 0.8125 0
0.125 0.8125 0
0 0.8125 0
0.03125 0.8125 0
0 0.84375 0
0.03125 0.84375 0
0.03125 0.8125 0
0.0625 0.8125 0
0.03125 0.84375 0
0.0625 0.84375 0
0 0.84375 0
0.03125 0.84375 0
0 0.875 0
0.03125 0.875 0
0.03125 0.84375 0
0.0625 0.84375 0
0.03125 0.875 0
0.0625 0.875 0
0.0625 0.8125 0
0.09375 0.8125 0
0.0625 0.84375 0
0.09375 0.84375 0
0.09375 0.8125 0
0.125 0.8125 0
0.09375 0.84375 0
0.125 0.84375 0
0.0625 0.84375 0
0.09375 0.84375 0
0.0625 0.875 0
0.09375 0.875 0
0.09375 0.84375 0
0.125 0.84375 0
0.09375 0.875 0
0.125 0.875 0
0.125 0.75 0
0.15625 0.75 0
0.125 0.78125 0
0.15625 0.78125 0
0.15625 0.75 0
0.1875 0.75 0
0.15625 0.78125 0
0.1875 0.78125 0
0.125 0.78125 0
0.15625 0.78125 0
0.125 0.8125 0
0.15625 0.8125 0
0.15625 0.78125 0
0.1875 0.78125 0
0.15625 0.8125 0
0.1875 0.8125 0
0.1875 0.75 0
0.21875 0.75 0
0.1875 0.78125 0
0.21875 0.78125 0
0.21875 0.75 0
0.25 0.75 0
0.21875 0.78125 0
0.25 0.78125 0
0.1875 0.78125 0
0.21875 0.78125 0
0.1875 0.8125 0
0.21875 0.8125 0
0.21875 0.78125 0
0.25 0.78125 0
0.21875 0.8125 0
0.25 0.8125 0
0.125 0.8125 0
0.15625 0.8125 0
0.125 0.84375 0
0.15625 0.84375 0
0.15625 0.8125 0
[...]
POINT_DATA 4096
SCALARS State_InstatPDEProblemContainer_0 double 1
LOOKUP_TABLE default
-0.00105358 -0.00105341 -0.00112722 -0.00112714 -0.00105341 -0.00105325 -0.00112714 -0.00112723 -0.00112722 -0.00112714 -0.00120054 -0.00120054 -0.00112714 -0.00112723 -0.00120054 -0.00120086 -0.00105325 -0.00105308 -0.00112723 -0.00112749 -0.00105308 -0.00105291 -0.00112749 -0.00112794 -0.00112723 -0.00112749 -0.00120086 -0.00120152 -0.00112749 -0.00112794 -0.00120152 -0.00120255 -0.00120054 -0.00120054 -0.00127323 -0.0012733 -0.00120054 -0.00120086 -0.0012733 -0.00127382 -0.00127323 -0.0012733 -0.00134502 -0.00134515 -0.0012733 -0.00127382 -0.00134515 -0.00134584 -0.00120086 -0.00120152 -0.00127382 -0.00127483 -0.00120152 -0.00120255 -0.00127483 -0.00127635 -0.00127382 -0.00127483 -0.00134584 -0.00134712 -0.00127483 -0.00127635 -0.00134712 -0.00134902 -0.00105291 -0.00105274 -0.00112794 -0.0011286 -0.00105274 -0.00105256 -0.0011286 -0.00112952 -0.00112794 -0.0011286 -0.00120255 -0.00120399 -0.0011286 -0.00112952 -0.00120399 -0.00120591 -0.00105256 -0.00105237 -0.00112952 -0.00113075 -0.00105237 -0.00105217 -0.00113075 -0.00113236 -0.00112952 -0.00113075 -0.00120591 -0.00120842 -0.00113075 -0.00113236 -0.00120842 -0.00121165 -0.00120255 -0.00120399 -0.00127635 -0.00127845 -0.00120399 -0.00120591 -0.00127845 -0.0012812 -0.00127635 -0.00127845 -0.00134902 -0.00135161 -0.00127845 -0.0012812 -0.00135161 -0.00135497 -0.00120591 -0.00120842 -0.0012812 -0.00128474 -0.00120842 -0.00121165 -0.00128474 -0.00128922 -0.0012812 -0.00128474 -0.00135497 -0.00135923 -0.00128474 -0.00128922 -0.00135923 -0.00136453 -0.00134502 -0.00134515 -0.00141569 -0.00141586 -0.00134515 -0.00134584 -0.00141586 -0.00141667 -0.00141569 -0.00141586 -0.00148506 -0.00148526 -0.00141586 -0.00141667 -0.00148526 -0.00148614 -0.00134584 -0.00134712 -0.00141667 -0.00141814 -0.00134712 -0.00134902 -0.00141814 -0.0014203 -0.00141667 -0.00141814 -0.00148614 -0.00148771 -0.00141814 -0.0014203 -0.00148771 -0.00149 -0.00148506 -0.00148526 -0.001553 -0.00155322 -0.00148526 -0.00148614 -0.00155322 -0.00155412 -0.001553 -0.00155322 -0.00161944 -0.00161966 -0.00155322 -0.00155412 -0.00161966 -0.00162055 -0.00148614 -0.00148771 -0.00155412 -0.00155572 -0.00148771 -0.00149 -0.00155572 -0.00155803 -0.00155412 -0.00155572 -0.00162055 -0.0016221 -0.00155572 -0.00155803 -0.0016221 -0.00162433 -0.00134902 -0.00135161 -0.0014203 -0.00142321 -0.00135161 -0.00135497 -0.00142321 -0.00142694 -0.0014203 -0.00142321 -0.00149 -0.00149306 -0.00142321 -0.00142694 -0.00149306 -0.00149693 -0.00135497 -0.00135923 -0.00142694 -0.00143158 -0.00135923 -0.00136453 -0.00143158 -0.00143727 -0.00142694 -0.00143158 -0.00149693 -0.00150168 -0.00143158 -0.00143727 -0.00150168 -0.00150737 -0.00149 -0.00149306 -0.00155803 -0.00156108 -0.00149306 -0.00149693 -0.00156108 -0.0015649 -0.00155803 -0.00156108 -0.00162433 -0.00162726 -0.00156108 -0.0015649 -0.00162726 -0.00163087 -0.00149693 -0.00150168 -0.0015649 -0.00156951 -0.00150168 -0.00150737 -0.00156951 -0.00157494 -0.0015649 -0.00156951 -0.00163087 -0.00163518 -0.00156951 -0.00157494 -0.00163518 -0.00164016 -0.00105217 -0.00105195 -0.00113236 -0.00113448 -0.00105195 -0.00105171 -0.00113448 -0.0011373 -0.00113236 -0.00113448 -0.00121165 -0.00121581 -0.00113448 -0.0011373 -0.00121581 -0.00122121 -0.00105171 -0.00105144 -0.0011373 -0.00114113 -0.00105144 -0.00105111 -0.00114113 -0.00114649 -0.0011373 -0.00114113 -0.00122121 -0.00122831 -0.00114113 -0.00114649 -0.00122831 -0.00123787 -0.00121165 -0.00121581 -0.00128922 -0.00129488 -0.00121581 -0.00122121 -0.00129488 -0.00130204 -0.00128922 -0.00129488 -0.00136453 -0.00137107 -0.00129488 -0.00130204 -0.00137107 -0.0013791 -0.00122121 -0.00122831 -0.00130204 -0.00131114 -0.00122831 -0.00123787 -0.00131114 -0.00132274 -0.00130204 -0.00131114 -0.0013791 -0.00138891 -0.00131114 -0.00132274 -0.00138891 -0.00140076 -0.00105111 -0.0010507 -0.00114649 -0.00115438 -0.0010507 -0.00105014 -0.00115438 -0.00116693 -0.00114649 -0.00115438 -0.00123787 -0.00125106 -0.00115438 -0.00116693 -0.00125106 -0.00126967 -0.00105014 -0.00104911 -0.00116693 -0.00118902 -0.00104911 -0.00104772 -0.00118902 -0.00123708 -0.00116693 -0.00118902 -0.00126967 -0.00129637 -0.00118902 -0.00123708 -0.00129637 -0.0013245 -0.00123787 -0.00125106 -0.00132274 -0.00133754 -0.00125106 -0.00126967 -0.00133754 -0.00135606 -0.00132274 -0.00133754 -0.00140076 -0.00141479 -0.00133754 -0.00135606 -0.00141479 -0.00143057 -0.00126967 -0.00129637 -0.00135606 -0.00137693 -0.00129637 -0.0013245 -0.00137693 -0.00139835 -0.00135606 -0.00137693 -0.00143057 -0.00144712 -0.00137693 -0.00139835 -0.00144712 -0.00146303 -0.00136453 -0.00137107 -0.00143727 -0.00144412 -0.00137107 -0.0013791 -0.00144412 -0.00145227 -0.00143727 -0.00144412 -0.00150737 -0.00151408 -0.00144412 -0.00145227 -0.00151408 -0.00152183 -0.0013791 -0.00138891 -0.00145227 -0.00146185 -0.00138891 -0.00140076 -0.00146185 -0.00147287 -0.00145227 -0.00146185 -0.00152183 -0.00153062 -0.00146185 -0.00147287 -0.00153062 -0.0015403 -0.00150737 -0.00151408 -0.00157494 -0.0015812 -0.00151408 -0.00152183 -0.0015812 -0.00158823 -0.00157494 -0.0015812 -0.00164016 -0.00164578 -0.0015812 -0.00158823 -0.00164578 -0.00165194 -0.00152183 -0.00153062 -0.00158823 -0.00159596 -0.00153062 -0.0015403 -0.00159596 -0.00160418 -0.00158823 -0.00159596 -0.00165194 -0.00165853 -0.00159596 -0.00160418 -0.00165853 -0.00166534 -0.00140076 -0.00141479 -0.00147287 -0.00148511 -0.00141479 -0.00143057 -0.00148511 -0.00149809 -0.00147287 -0.00148511 -0.0015403 -0.00155059 -0.00148511 -0.00149809 -0.00155059 -0.00156104 -0.00143057 -0.00144712 -0.00149809 -0.001511 -0.00144712 -0.00146303 -0.001511 -0.00152316 -0.00149809 -0.001511 -0.00156104 -0.0015711 -0.001511 -0.00152316 -0.0015711 -0.00158038 -0.0015403 -0.00155059 -0.00160418 -0.00161262 -0.00155059 -0.00156104 -0.00161262 -0.0016209 -0.00160418 -0.00161262 -0.00166534 -0.00167212 -0.00161262 -0.0016209 -0.00167212 -0.00167859 -0.00156104 -0.0015711 -0.0016209 -0.00162868 -0.0015711 -0.00158038 -0.00162868 -0.00163573 -0.0016209 -0.00162868 -0.00167859 -0.00168453 -0.00162868 -0.00163573 -0.00168453 -0.00168979 -0.00161944 -0.00161966 -0.00168434 -0.00168455 -0.00161966 -0.00162055 -0.00168455 -0.00168539 -0.00168434 -0.00168455 -0.00174771 -0.0017479 -0.00168455 -0.00168539 -0.0017479 -0.00174866 -0.00162055 -0.0016221 -0.00168539 -0.00168684 -0.0016221 -0.00162433 -0.00168684 -0.00168893 -0.00168539 -0.00168684 -0.00174866 -0.00174998 -0.00168684 -0.00168893 -0.00174998 -0.00175186 -0.00174771 -0.0017479 -0.00180959 -0.00180975 -0.0017479 -0.00174866 -0.00180975 -0.00181042 -0.00180959 -0.00180975 -0.00187006 -0.00187019 -0.00180975 -0.00181042 -0.00187019 -0.00187074 -0.00174866 -0.00174998 -0.00181042 -0.00181157 -0.00174998 -0.00175186 -0.00181157 -0.0018132 -0.00181042 -0.00181157 -0.00187074 -0.0018717 -0.00181157 -0.0018132 -0.0018717 -0.00187306 -0.00162433 -0.00162726 -0.00168893 -0.00169163 -0.00162726 -0.00163087 -0.00169163 -0.00169494 -0.00168893 -0.00169163 -0.00175186 -0.00175428 -0.00169163 -0.00169494 -0.00175428 -0.00175721 -0.00163087 -0.00163518 -0.00169494 -0.00169882 -0.00163518 -0.00164016 -0.00169882 -0.00170325 -0.00169494 -0.00169882 -0.00175721 -0.0017606 -0.00169882 -0.00170325 -0.0017606 -0.00176442 -0.00175186 -0.00175428 -0.0018132 -0.00181529 -0.00175428 -0.00175721 -0.00181529 -0.0018178 -0.0018132 -0.00181529 -0.00187306 -0.00187479 -0.00181529 -0.0018178 -0.00187479 -0.00187686 -0.00175721 -0.0017606 -0.0018178 -0.00182068 -0.0017606 -0.00176442 -0.00182068 -0.00182386 -0.0018178 -0.00182068 -0.00187686 -0.0018792 -0.00182068 -0.00182386 -0.0018792 -0.00188176 -0.00187006 -0.00187019 -0.0019292 -0.00192929 -0.00187019 -0.00187074 -0.00192929 -0.00192972 -0.0019292 -0.00192929 -0.00198715 -0.0019872 -0.00192929 -0.00192972 -0.0019872 -0.00198749 -0.00187074 -0.0018717 -0.00192972 -0.00193047 -0.0018717 -0.00187306 -0.00193047 -0.00193154 -0.00192972 -0.00193047 -0.00198749 -0.00198801 -0.00193047 -0.00193154 -0.00198801 -0.00198876 -0.00198715 -0.0019872 -0.00204405 -0.00204404 -0.0019872 -0.00198749 -0.00204404 -0.00204419 -0.00204405 -0.00204404 -0.0021 -0.0021 -0.00204404 -0.00204419 -0.0021 -0.0021 -0.00198749 -0.00198801 -0.00204419 -0.00204447 -0.00198801 -0.00198876 -0.00204447 -0.00204486 -0.00204419 -0.00204447 -0.0021 -0.0021 -0.00204447 -0.00204486 -0.0021 -0.0021 -0.00187306 -0.00187479 -0.00193154 -0.00193289 -0.00187479 -0.00187686 -0.00193289 -0.00193449 -0.00193154 -0.00193289 -0.00198876 -0.0019897 -0.00193289 -0.00193449 -0.0019897 -0.00199081 -0.00187686 -0.0018792 -0.00193449 -0.00193629 -0.0018792 -0.00188176 -0.00193629 -0.00193824 -0.00193449 -0.00193629 -0.00199081 -0.00199206 -0.00193629 -0.00193824 -0.00199206 -0.00199339 -0.00198876 -0.0019897 -0.00204486 -0.00204536 -0.0019897 -0.00199081 -0.00204536 -0.00204595 -0.00204486 -0.00204536 -0.0021 -0.0021 -0.00204536 -0.00204595 -0.0021 -0.0021 -0.00199081 -0.00199206 -0.00204595 -0.0020466 -0.00199206 -0.00199339 -0.0020466 -0.0020473 -0.00204595 -0.0020466 -0.0021 -0.0021 -0.0020466 -0.0020473 -0.0021 -0.0021 -0.00164016 -0.00164578 -0.00170325 -0.00170814 -0.00164578 -0.00165194 -0.00170814 -0.00171339 -0.00170325 -0.00170814 -0.00176442 -0.00176855 -0.00170814 -0.00171339 -0.00176855 -0.00177291 -0.00165194 -0.00165853 -0.00171339 -0.00171886 -0.00165853 -0.00166534 -0.00171886 -0.00172437 -0.00171339 -0.00171886 -0.00177291 -0.00177735 -0.00171886 -0.00172437 -0.00177735 -0.00178171 -0.00176442 -0.00176855 -0.00182386 -0.00182727 -0.00176855 -0.00177291 -0.00182727 -0.00183078 -0.00182386 -0.00182727 -0.00188176 -0.00188446 -0.00182727 -0.00183078 -0.00188446 -0.00188719 -0.00177291 -0.00177735 -0.00183078 -0.00183428 -0.00177735 -0.00178171 -0.00183428 -0.00183764 -0.00183078 -0.00183428 -0.00188719 -0.00188986 -0.00183428 -0.00183764 -0.00188986 -0.00189235 -0.00166534 -0.00167212 -0.00172437 -0.00172971 -0.00167212 -0.00167859 -0.00172971 -0.00173468 -0.00172437 -0.00172971 -0.00178171 -0.00178583 -0.00172971 -0.00173468 -0.00178583 -0.00178955 -0.00167859 -0.00168453 -0.00173468 -0.00173912 -0.00168453 -0.00168979 -0.00173912 -0.00174295 -0.00173468 -0.00173912 -0.00178955 -0.00179276 -0.00173912 -0.00174295 -0.00179276 -0.00179543 -0.00178171 -0.00178583 -0.00183764 -0.00184072 -0.00178583 -0.00178955 -0.00184072 -0.00184342 -0.00183764 -0.00184072 -0.00189235 -0.00189457 -0.00184072 -0.00184342 -0.00189457 -0.00189643 -0.00178955 -0.00179276 -0.00184342 -0.00184565 -0.00179276 -0.00179543 -0.00184565 -0.00184739 -0.00184342 -0.00184565 -0.00189643 -0.00189787 -0.00184565 -0.00184739 -0.00189787 -0.0018989 -0.00188176 -0.00188446 -0.00193824 -0.00194026 -0.00188446 -0.00188719 -0.00194026 -0.00194227 -0.00193824 -0.00194026 -0.00199339 -0.00199476 -0.00194026 -0.00194227 -0.00199476 -0.0019961 -0.00188719 -0.00188986 -0.00194227 -0.0019442 -0.00188986 -0.00189235 -0.0019442 -0.00194595 -0.00194227 -0.0019442 -0.0019961 -0.00199735 -0.0019442 -0.00194595 -0.00199735 -0.00199846 -0.00199339 -0.00199476 -0.0020473 -0.002048 -0.00199476 -0.0019961 -0.002048 -0.00204869 -0.0020473 -0.002048 -0.0021 -0.0021 -0.002048 -0.00204869 -0.0021 -0.0021 -0.0019961 -0.00199735 -0.00204869 -0.00204931 -0.00199735 -0.00199846 -0.00204931 -0.00204985 -0.00204869 -0.00204931 -0.0021 -0.0021 -0.00204931 -0.00204985 -0.0021 -0.0021 -0.00189235 -0.00189457 -0.00194595 -0.00194745 -0.00189457 -0.00189643 -0.00194745 -0.00194864 -0.00194595 -0.00194745 -0.00199846 -0.00199937 -0.00194745 -0.00194864 -0.00199937 -0.00200004 -0.00189643 -0.00189787 -0.00194864 -0.00194948 -0.00189787 -0.0018989 -0.00194948 -0.00194998 -0.00194864 -0.00194948 -0.00200004 -0.00200044 -0.00194948 -0.00194998 -0.00200044 -0.00200059 -0.00199846 -0.00199937 -0.00204985 -0.00205027 -0.00199937 -0.00200004 -0.00205027 -0.00205055 -0.00204985 -0.00205027 -0.0021 -0.0021 -0.00205027 -0.00205055 -0.0021 -0.0021 -0.00200004 -0.00200044 -0.00205055 -0.00205067 -0.00200044 -0.00200059 -0.00205067 -0.00205065 -0.00205055 -0.00205067 -0.0021 -0.0021 -0.00205067 -0.00205065 -0.0021 -0.0021 -0.00104772 -0.00120766 -0.00123708 -0.00127575 -0.00120766 -0.0013026 -0.00127575 -0.001329 -0.00123708 -0.00127575 -0.0013245 -0.00135378 -0.00127575 -0.001329 -0.00135378 -0.00138197 -0.0013026 -0.00136711 -0.001329 -0.00137919 -0.00136711 -0.00141593 -0.00137919 -0.00142207 -0.001329 -0.00137919 -0.00138197 -0.00141425 -0.00137919 -0.00142207 -0.00141425 -0.00144635 -0.0013245 -0.00135378 -0.00139835 -0.00141814 -0.00135378 -0.00138197 -0.00141814 -0.00143807 -0.00139835 -0.00141814 -0.00146303 -0.00147787 -0.00141814 -0.00143807 -0.00147787 -0.00149218 -0.00138197 -0.00141425 -0.00143807 -0.00145922 -0.00141425 -0.00144635 -0.00145922 -0.00148183 -0.00143807 -0.00145922 -0.00149218 -0.00150715 -0.00145922 -0.00148183 -0.00150715 -0.00152309 -0.00141593 -0.00145482 -0.00142207 -0.00145815 -0.00145482 -0.00148664 -0.00145815 -0.00148852 -0.00142207 -0.00145815 -0.00144635 -0.00147593 -0.00145815 -0.00148852 -0.00147593 -0.00150223 -0.00148664 -0.001513 -0.00148852 -0.00151413 -0.001513 -0.00153494 -0.00151413 -0.00153569 -0.00148852 -0.00151413 -0.00150223 -0.00152519 -0.00151413 -0.00153569 -0.00152519 -0.001545 -0.00144635 -0.00147593 -0.00148183 -0.00150432 -0.00147593 -0.00150223 -0.00150432 -0.00152552 -0.00148183 -0.00150432 -0.00152309 -0.0015396 -0.00150432 -0.00152552 -0.0015396 -0.00155591 -0.00150223 -0.00152519 -0.00152552 -0.00154483 -0.00152519 -0.001545 -0.00154483 -0.001562 -0.00152552 -0.00154483 -0.00155591 -0.00157136 -0.00154483 -0.001562 -0.00157136 -0.00158554 -0.00146303 -0.00147787 -0.00152316 -0.00153432 -0.00147787 -0.00149218 -0.00153432 -0.00154496 -0.00152316 -0.00153432 -0.00158038 -0.00158882 -0.00153432 -0.00154496 -0.00158882 -0.00159672 -0.00149218 -0.00150715 -0.00154496 -0.00155575 -0.00150715 -0.00152309 -0.00155575 -0.00156715 -0.00154496 -0.00155575 -0.00159672 -0.00160455 -0.00155575 -0.00156715 -0.00160455 -0.00161269 -0.00158038 -0.00158882 -0.00163573 -0.00164204 -0.00158882 -0.00159672 -0.00164204 -0.00164783 -0.00163573 -0.00164204 -0.00168979 -0.00169441 -0.00164204 -0.00164783 -0.00169441 -0.00169853 -0.00159672 -0.00160455 -0.00164783 -0.00165344 -0.00160455 -0.00161269 -0.00165344 -0.00165917 -0.00164783 -0.00165344 -0.00169853 -0.00170242 -0.00165344 -0.00165917 -0.00170242 -0.00170631 -0.00152309 -0.0015396 -0.00156715 -0.00157911 -0.0015396 -0.00155591 -0.00157911 -0.00159128 -0.00156715 -0.00157911 -0.00161269 -0.00162126 -0.00157911 -0.00159128 -0.00162126 -0.00163012 -0.00155591 -0.00157136 -0.00159128 -0.00160319 -0.00157136 -0.00158554 -0.00160319 -0.00161443 -0.00159128 -0.00160319 -0.00163012 -0.001639 -0.00160319 -0.00161443 -0.001639 -0.0016476 -0.00161269 -0.00162126 -0.00165917 -0.00166517 -0.00162126 -0.00163012 -0.00166517 -0.00167145 -0.00165917 -0.00166517 -0.00170631 -0.00171037 -0.00166517 -0.00167145 -0.00171037 -0.00171464 -0.00163012 -0.001639 -0.00167145 -0.00167785 -0.001639 -0.0016476 -0.00167785 -0.00168419 -0.00167145 -0.00167785 -0.00171464 -0.00171906 -0.00167785 -0.00168419 -0.00171906 -0.00172352 -0.00153494 -0.00155316 -0.00153569 -0.00155375 -0.00155316 -0.00156817 -0.00155375 -0.00156874 -0.00153569 -0.00155375 -0.001545 -0.00156187 -0.00155375 -0.00156874 -0.00156187 -0.00157605 -0.00156817 -0.00158036 -0.00156874 -0.00158097 -0.00158036 -0.00159 -0.00158097 -0.00159068 -0.00156874 -0.00158097 -0.00157605 -0.00158772 -0.00158097 -0.00159068 -0.00158772 -0.00159705 -0.001545 -0.00156187 -0.001562 -0.00157696 -0.00156187 -0.00157605 -0.00157696 -0.00158973 -0.001562 -0.00157696 -0.00158554 -0.0015982 -0.00157696 -0.00158973 -0.0015982 -0.00160922 -0.00157605 -0.00158772 -0.00158973 -0.00160038 -0.00158772 -0.00159705 -0.00160038 -0.00160897 -0.00158973 -0.00160038 -0.00160922 -0.00161853 -0.00160038 -0.00160897 -0.00161853 -0.00162613 -0.00159 -0.00159729 -0.00159068 -0.00159806 -0.00159729 -0.0016024 -0.00159806 -0.00160324 -0.00159068 -0.00159806 -0.00159705 -0.00160418 -0.00159806 -0.00160324 -0.00160418 -0.0016092 -0.0016024 -0.00160543 -0.00160324 -0.00160631 -0.00160543 -0.00160643 -0.00160631 -0.00160732 -0.00160324 -0.00160631 -0.0016092 -0.00161219 -0.00160631 -0.00160732 -0.00161219 -0.00161317 -0.00159705 -0.00160418 -0.00160897 -0.00161558 -0.00160418 -0.0016092 -0.00161558 -0.00162025 -0.00160897 -0.00161558 -0.00162613 -0.00163203 -0.00161558 -0.00162025 -0.00163203 -0.00163622 -0.0016092 -0.00161219 -0.00162025 -0.00162304 -0.00161219 -0.00161317 -0.00162304 -0.00162396 -0.00162025 -0.00162304 -0.00163622 -0.00163873 -0.00162304 -0.00162396 -0.00163873 -0.00163956 -0.00158554 -0.0015982 -0.00161443 -0.00162471 -0.0015982 -0.00160922 -0.00162471 -0.00163384 -0.00161443 -0.00162471 -0.0016476 -0.00165564 -0.00162471 -0.00163384 -0.00165564 -0.00166292 -0.00160922 -0.00161853 -0.00163384 -0.00164168 -0.00161853 -0.00162613 -0.00164168 -0.00164815 -0.00163384 -0.00164168 -0.00166292 -0.00166927 -0.00164168 -0.00164815 -0.00166927 -0.00167457 -0.0016476 -0.00165564 -0.00168419 -0.00169023 -0.00165564 -0.00166292 -0.00169023 -0.00169581 -0.00168419 -0.00169023 -0.00172352 -0.00172787 -0.00169023 -0.00169581 -0.00172787 -0.00173196 -0.00166292 -0.00166927 -0.00169581 -0.00170075 -0.00166927 -0.00167457 -0.00170075 -0.00170494 -0.00169581 -0.00170075 -0.00173196 -0.00173565 -0.00170075 -0.00170494 -0.00173565 -0.00173881 -0.00162613 -0.00163203 -0.00164815 -0.00165321 -0.00163203 -0.00163622 -0.00165321 -0.00165684 -0.00164815 -0.00165321 -0.00167457 -0.00167877 -0.00165321 -0.00165684 -0.00167877 -0.00168179 -0.00163622 -0.00163873 -0.00165684 -0.00165902 -0.00163873 -0.00163956 -0.00165902 -0.00165974 -0.00165684 -0.00165902 -0.00168179 -0.00168361 -0.00165902 -0.00165974 -0.00168361 -0.00168421 -0.00167457 -0.00167877 -0.00170494 -0.00170828 -0.00167877 -0.00168179 -0.00170828 -0.0017107 -0.00170494 -0.00170828 -0.00173881 -0.00174136 -0.00170828 -0.0017107 -0.00174136 -0.00174323 -0.00168179 -0.00168361 -0.0017107 -0.00171217 -0.00168361 -0.00168421 -0.00171217 -0.00171265 -0.0017107 -0.00171217 -0.00174323 -0.00174436 -0.00171217 -0.00171265 -0.00174436 -0.00174472 -0.00168979 -0.00169441 -0.00174295 -0.0017462 -0.00169441 -0.00169853 -0.0017462 -0.001749 -0.00174295 -0.0017462 -0.00179543 -0.00179759 -0.0017462 -0.001749 -0.00179759 -0.00179934 -0.00169853 -0.00170242 -0.001749 -0.00175154 -0.00170242 -0.00170631 -0.00175154 -0.00175402 -0.001749 -0.00175154 -0.00179934 -0.00180083 -0.00175154 -0.00175402 -0.00180083 -0.00180222 -0.00179543 -0.00179759 -0.00184739 -0.00184869 -0.00179759 -0.00179934 -0.00184869 -0.00184962 -0.00184739 -0.00184869 -0.0018989 -0.00189954 -0.00184869 -0.00184962 -0.00189954 -0.00189986 -0.00179934 -0.00180083 -0.00184962 -0.00185031 -0.00180083 -0.00180222 -0.00185031 -0.00185088 -0.00184962 -0.00185031 -0.00189986 -0.00189997 -0.00185031 -0.00185088 -0.00189997 -0.00189996 -0.00170631 -0.00171037 -0.00175402 -0.00175658 -0.00171037 -0.00171464 -0.00175658 -0.00175929 -0.00175402 -0.00175658 -0.00180222 -0.00180364 -0.00175658 -0.00175929 -0.00180364 -0.00180517 -0.00171464 -0.00171906 -0.00175929 -0.00176216 -0.00171906 -0.00172352 -0.00176216 -0.00176512 -0.00175929 -0.00176216 -0.00180517 -0.00180684 -0.00176216 -0.00176512 -0.00180684 -0.00180863 -0.00180222 -0.00180364 -0.00185088 -0.00185145 -0.00180364 -0.00180517 -0.00185145 -0.0018521 -0.00185088 -0.00185145 -0.00189996 -0.00189994 -0.00185145 -0.0018521 -0.00189994 -0.00189998 -0.00180517 -0.00180684 -0.0018521 -0.00185288 -0.00180684 -0.00180863 -0.00185288 -0.00185378 -0.0018521 -0.00185288 -0.00189998 -0.00190013 -0.00185288 -0.00185378 -0.00190013 -0.0019004 -0.0018989 -0.00189954 -0.00194998 -0.00195015 -0.00189954 -0.00189986 -0.00195015 -0.00195007 -0.00194998 -0.00195015 -0.00200059 -0.00200049 -0.00195015 -0.00195007 -0.00200049 -0.00200021 -0.00189986 -0.00189997 -0.00195007 -0.00194981 -0.00189997 -0.00189996 -0.00194981 -0.00194945 -0.0019