# vtk DataFile Version 3.0
#This file was generated by the deal.II library on 2018/7/10 at 10:47:00
ASCII
DATASET UNSTRUCTURED_GRID

POINTS 4096 double
0 0.5 0
0.03125 0.5 0
0 0.53125 0
0.03125 0.53125 0
0.03125 0.5 0
0.0625 0.5 0
0.03125 0.53125 0
0.0625 0.53125 0
0 0.53125 0
0.03125 0.53125 0
0 0.5625 0
0.03125 0.5625 0
0.03125 0.53125 0
0.0625 0.53125 0
0.03125 0.5625 0
0.0625 0.5625 0
0.0625 0.5 0
0.09375 0.5 0
0.0625 0.53125 0
0.09375 0.53125 0
0.09375 0.5 0
0.125 0.5 0
0.09375 0.53125 0
0.125 0.53125 0
0.0625 0.53125 0
0.09375 0.53125 0
0.0625 0.5625 0
0.09375 0.5625 0
0.09375 0.53125 0
0.125 0.53125 0
0.09375 0.5625 0
0.125 0.5625 0
0 0.5625 0
0.03125 0.5625 0
0 0.59375 0
0.03125 0.59375 0
0.03125 0.5625 0
0.0625 0.5625 0
0.03125 0.59375 0
0.0625 0.59375 0
0 0.59375 0
0.03125 0.59375 0
0 0.625 0
0.03125 0.625 0
0.03125 0.59375 0
0.0625 0.59375 0
0.03125 0.625 0
0.0625 0.625 0
0.0625 0.5625 0
0.09375 0.5625 0
0.0625 0.59375 0
0.09375 0.59375 0
0.09375 0.5625 0
0.125 0.5625 0
0.09375 0.59375 0
0.125 0.59375 0
0.0625 0.59375 0
0.09375 0.59375 0
0.0625 0.625 0
0.09375 0.625 0
0.09375 0.59375 0
0.125 0.59375 0
0.09375 0.625 0
0.125 0.625 0
0.125 0.5 0
0.15625 0.5 0
0.125 0.53125 0
0.15625 0.53125 0
0.15625 0.5 0
0.1875 0.5 0
0.15625 0.53125 0
0.1875 0.53125 0
0.125 0.53125 0
0.15625 0.53125 0
0.125 0.5625 0
0.15625 0.5625 0
0.15625 0.53125 0
0.1875 0.53125 0
0.15625 0.5625 0
0.1875 0.5625 0
0.1875 0.5 0
0.21875 0.5 0
0.1875 0.53125 0
0.21875 0.53125 0
0.21875 0.5 0
0.25 0.5 0
0.21875 0.53125 0
0.25 0.53125 0
0.1875 0.53125 0
0.21875 0.53125 0
0.1875 0.5625 0
0.21875 0.5625 0
0.21875 0.53125 0
0.25 0.53125 0
0.21875 0.5625 0
0.25 0.5625 0
0.125 0.5625 0
0.15625 0.5625 0
0.125 0.59375 0
0.15625 0.59375 0
0.15625 0.5625 0
0.1875 0.5625 0
0.15625 0.59375 0
0.1875 0.59375 0
0.125 0.59375 0
0.15625 0.59375 0
0.125 0.625 0
0.15625 0.625 0
0.15625 0.59375 0
0.1875 0.59375 0
0.15625 0.625 0
0.1875 0.625 0
0.1875 0.5625 0
0.21875 0.5625 0
0.1875 0.59375 0
0.21875 0.59375 0
0.21875 0.5625 0
0.25 0.5625 0
0.21875 0.59375 0
0.25 0.59375 0
0.1875 0.59375 0
0.21875 0.59375 0
0.1875 0.625 0
0.21875 0.625 0
0.21875 0.59375 0
0.25 0.59375 0
0.21875 0.625 0
0.25 0.625 0
0 0.625 0
0.03125 0.625 0
0 0.65625 0
0.03125 0.65625 0
0.03125 0.625 0
0.0625 0.625 0
0.03125 0.65625 0
0.0625 0.65625 0
0 0.65625 0
0.03125 0.65625 0
0 0.6875 0
0.03125 0.6875 0
0.03125 0.65625 0
0.0625 0.65625 0
0.03125 0.6875 0
0.0625 0.6875 0
0.0625 0.625 0
0.09375 0.625 0
0.0625 0.65625 0
0.09375 0.65625 0
0.09375 0.625 0
0.125 0.625 0
0.09375 0.65625 0
0.125 0.65625 0
0.0625 0.65625 0
0.09375 0.65625 0
0.0625 0.6875 0
0.09375 0.6875 0
0.09375 0.65625 0
0.125 0.65625 0
0.09375 0.6875 0
0.125 0.6875 0
0 0.6875 0
0.03125 0.6875 0
0 0.71875 0
0.03125 0.71875 0
0.03125 0.6875 0
0.0625 0.6875 0
0.03125 0.71875 0
0.0625 0.71875 0
0 0.71875 0
0.03125 0.71875 0
0 0.75 0
0.03125 0.75 0
0.03125 0.71875 0
0.0625 0.71875 0
0.03125 0.75 0
0.0625 0.75 0
0.0625 0.6875 0
0.09375 0.6875 0
0.0625 0.71875 0
0.09375 0.71875 0
0.09375 0.6875 0
0.125 0.6875 0
0.09375 0.71875 0
0.125 0.71875 0
0.0625 0.71875 0
0.09375 0.71875 0
0.0625 0.75 0
0.09375 0.75 0
0.09375 0.71875 0
0.125 0.71875 0
0.09375 0.75 0
0.125 0.75 0
0.125 0.625 0
0.15625 0.625 0
0.125 0.65625 0
0.15625 0.65625 0
0.15625 0.625 0
0.1875 0.625 0
0.15625 0.65625 0
0.1875 0.65625 0
0.125 0.65625 0
0.15625 0.65625 0
0.125 0.6875 0
0.15625 0.6875 0
0.15625 0.65625 0
0.1875 0.65625 0
0.15625 0.6875 0
0.1875 0.6875 0
0.1875 0.625 0
0.21875 0.625 0
0.1875 0.65625 0
0.21875 0.65625 0
0.21875 0.625 0
0.25 0.625 0
0.21875 0.65625 0
0.25 0.65625 0
0.1875 0.65625 0
0.21875 0.65625 0
0.1875 0.6875 0
0.21875 0.6875 0
0.21875 0.65625 0
0.25 0.65625 0
0.21875 0.6875 0
0.25 0.6875 0
0.125 0.6875 0
0.15625 0.6875 0
0.125 0.71875 0
0.15625 0.71875 0
0.15625 0.6875 0
0.1875 0.6875 0
0.15625 0.71875 0
0.1875 0.71875 0
0.125 0.71875 0
0.15625 0.71875 0
0.125 0.75 0
0.15625 0.75 0
0.15625 0.71875 0
0.1875 0.71875 0
0.15625 0.75 0
0.1875 0.75 0
0.1875 0.6875 0
0.21875 0.6875 0
0.1875 0.71875 0
0.21875 0.71875 0
0.21875 0.6875 0
0.25 0.6875 0
0.21875 0.71875 0
0.25 0.71875 0
0.1875 0.71875 0
0.21875 0.71875 0
0.1875 0.75 0
0.21875 0.75 0
0.21875 0.71875 0
0.25 0.71875 0
0.21875 0.75 0
0.25 0.75 0
0.25 0.5 0
0.28125 0.5 0
0.25 0.53125 0
0.28125 0.53125 0
0.28125 0.5 0
0.3125 0.5 0
0.28125 0.53125 0
0.3125 0.53125 0
0.25 0.53125 0
0.28125 0.53125 0
0.25 0.5625 0
0.28125 0.5625 0
0.28125 0.53125 0
0.3125 0.53125 0
0.28125 0.5625 0
0.3125 0.5625 0
0.3125 0.5 0
0.34375 0.5 0
0.3125 0.53125 0
0.34375 0.53125 0
0.34375 0.5 0
0.375 0.5 0
0.34375 0.53125 0
0.375 0.53125 0
0.3125 0.53125 0
0.34375 0.53125 0
0.3125 0.5625 0
0.34375 0.5625 0
0.34375 0.53125 0
0.375 0.53125 0
0.34375 0.5625 0
0.375 0.5625 0
0.25 0.5625 0
0.28125 0.5625 0
0.25 0.59375 0
0.28125 0.59375 0
0.28125 0.5625 0
0.3125 0.5625 0
0.28125 0.59375 0
0.3125 0.59375 0
0.25 0.59375 0
0.28125 0.59375 0
0.25 0.625 0
0.28125 0.625 0
0.28125 0.59375 0
0.3125 0.59375 0
0.28125 0.625 0
0.3125 0.625 0
0.3125 0.5625 0
0.34375 0.5625 0
0.3125 0.59375 0
0.34375 0.59375 0
0.34375 0.5625 0
0.375 0.5625 0
0.34375 0.59375 0
0.375 0.59375 0
0.3125 0.59375 0
0.34375 0.59375 0
0.3125 0.625 0
0.34375 0.625 0
0.34375 0.59375 0
0.375 0.59375 0
0.34375 0.625 0
0.375 0.625 0
0.375 0.5 0
0.40625 0.5 0
0.375 0.53125 0
0.40625 0.53125 0
0.40625 0.5 0
0.4375 0.5 0
0.40625 0.53125 0
0.4375 0.53125 0
0.375 0.53125 0
0.40625 0.53125 0
0.375 0.5625 0
0.40625 0.5625 0
0.40625 0.53125 0
0.4375 0.53125 0
0.40625 0.5625 0
0.4375 0.5625 0
0.4375 0.5 0
0.46875 0.5 0
0.4375 0.53125 0
0.46875 0.53125 0
0.46875 0.5 0
0.5 0.5 0
0.46875 0.53125 0
0.5 0.53125 0
0.4375 0.53125 0
0.46875 0.53125 0
0.4375 0.5625 0
0.46875 0.5625 0
0.46875 0.53125 0
0.5 0.53125 0
0.46875 0.5625 0
0.5 0.5625 0
0.375 0.5625 0
0.40625 0.5625 0
0.375 0.59375 0
0.40625 0.59375 0
0.40625 0.5625 0
0.4375 0.5625 0
0.40625 0.59375 0
0.4375 0.59375 0
0.375 0.59375 0
0.40625 0.59375 0
0.375 0.625 0
0.40625 0.625 0
0.40625 0.59375 0
0.4375 0.59375 0
0.40625 0.625 0
0.4375 0.625 0
0.4375 0.5625 0
0.46875 0.5625 0
0.4375 0.59375 0
0.46875 0.59375 0
0.46875 0.5625 0
0.5 0.5625 0
0.46875 0.59375 0
0.5 0.59375 0
0.4375 0.59375 0
0.46875 0.59375 0
0.4375 0.625 0
0.46875 0.625 0
0.46875 0.59375 0
0.5 0.59375 0
0.46875 0.625 0
0.5 0.625 0
0.25 0.625 0
0.28125 0.625 0
0.25 0.65625 0
0.28125 0.65625 0
0.28125 0.625 0
0.3125 0.625 0
0.28125 0.65625 0
0.3125 0.65625 0
0.25 0.65625 0
0.28125 0.65625 0
0.25 0.6875 0
0.28125 0.6875 0
0.28125 0.65625 0
0.3125 0.65625 0
0.28125 0.6875 0
0.3125 0.6875 0
0.3125 0.625 0
0.34375 0.625 0
0.3125 0.65625 0
0.34375 0.65625 0
0.34375 0.625 0
0.375 0.625 0
0.34375 0.65625 0
0.375 0.65625 0
0.3125 0.65625 0
0.34375 0.65625 0
0.3125 0.6875 0
0.34375 0.6875 0
0.34375 0.65625 0
0.375 0.65625 0
0.34375 0.6875 0
0.375 0.6875 0
0.25 0.6875 0
0.28125 0.6875 0
0.25 0.71875 0
0.28125 0.71875 0
0.28125 0.6875 0
0.3125 0.6875 0
0.28125 0.71875 0
0.3125 0.71875 0
0.25 0.71875 0
0.28125 0.71875 0
0.25 0.75 0
0.28125 0.75 0
0.28125 0.71875 0
0.3125 0.71875 0
0.28125 0.75 0
0.3125 0.75 0
0.3125 0.6875 0
0.34375 0.6875 0
0.3125 0.71875 0
0.34375 0.71875 0
0.34375 0.6875 0
0.375 0.6875 0
0.34375 0.71875 0
0.375 0.71875 0
0.3125 0.71875 0
0.34375 0.71875 0
0.3125 0.75 0
0.34375 0.75 0
0.34375 0.71875 0
0.375 0.71875 0
0.34375 0.75 0
0.375 0.75 0
0.375 0.625 0
0.40625 0.625 0
0.375 0.65625 0
0.40625 0.65625 0
0.40625 0.625 0
0.4375 0.625 0
0.40625 0.65625 0
0.4375 0.65625 0
0.375 0.65625 0
0.40625 0.65625 0
0.375 0.6875 0
0.40625 0.6875 0
0.40625 0.65625 0
0.4375 0.65625 0
0.40625 0.6875 0
0.4375 0.6875 0
0.4375 0.625 0
0.46875 0.625 0
0.4375 0.65625 0
0.46875 0.65625 0
0.46875 0.625 0
0.5 0.625 0
0.46875 0.65625 0
0.5 0.65625 0
0.4375 0.65625 0
0.46875 0.65625 0
0.4375 0.6875 0
0.46875 0.6875 0
0.46875 0.65625 0
0.5 0.65625 0
0.46875 0.6875 0
0.5 0.6875 0
0.375 0.6875 0
0.40625 0.6875 0
0.375 0.71875 0
0.40625 0.71875 0
0.40625 0.6875 0
0.4375 0.6875 0
0.40625 0.71875 0
0.4375 0.71875 0
0.375 0.71875 0
0.40625 0.71875 0
0.375 0.75 0
0.40625 0.75 0
0.40625 0.71875 0
0.4375 0.71875 0
0.40625 0.75 0
0.4375 0.75 0
0.4375 0.6875 0
0.46875 0.6875 0
0.4375 0.71875 0
0.46875 0.71875 0
0.46875 0.6875 0
0.5 0.6875 0
0.46875 0.71875 0
0.5 0.71875 0
0.4375 0.71875 0
0.46875 0.71875 0
0.4375 0.75 0
0.46875 0.75 0
0.46875 0.71875 0
0.5 0.71875 0
0.46875 0.75 0
0.5 0.75 0
0 0.75 0
0.03125 0.75 0
0 0.78125 0
0.03125 0.78125 0
0.03125 0.75 0
0.0625 0.75 0
0.03125 0.78125 0
0.0625 0.78125 0
0 0.78125 0
0.03125 0.78125 0
0 0.8125 0
0.03125 0.8125 0
0.03125 0.78125 0
0.0625 0.78125 0
0.03125 0.8125 0
0.0625 0.8125 0
0.0625 0.75 0
0.09375 0.75 0
0.0625 0.78125 0
0.09375 0.78125 0
0.09375 0.75 0
0.125 0.75 0
0.09375 0.78125 0
0.125 0.78125 0
0.0625 0.78125 0
0.09375 0.78125 0
0.0625 0.8125 0
0.09375 0.8125 0
0.09375 0.78125 0
0.125 0.78125 0
0.09375 0.8125 0
0.125 0.8125 0
0 0.8125 0
0.03125 0.8125 0
0 0.84375 0
0.03125 0.84375 0
0.03125 0.8125 0
0.0625 0.8125 0
0.03125 0.84375 0
0.0625 0.84375 0
0 0.84375 0
0.03125 0.84375 0
0 0.875 0
0.03125 0.875 0
0.03125 0.84375 0
0.0625 0.84375 0
0.03125 0.875 0
0.0625 0.875 0
0.0625 0.8125 0
0.09375 0.8125 0
0.0625 0.84375 0
0.09375 0.84375 0
0.09375 0.8125 0
0.125 0.8125 0
0.09375 0.84375 0
0.125 0.84375 0
0.0625 0.84375 0
0.09375 0.84375 0
0.0625 0.875 0
0.09375 0.875 0
0.09375 0.84375 0
0.125 0.84375 0
0.09375 0.875 0
0.125 0.875 0
0.125 0.75 0
0.15625 0.75 0
0.125 0.78125 0
0.15625 0.78125 0
0.15625 0.75 0
0.1875 0.75 0
0.15625 0.78125 0
0.1875 0.78125 0
0.125 0.78125 0
0.15625 0.78125 0
0.125 0.8125 0
0.15625 0.8125 0
0.15625 0.78125 0
0.1875 0.78125 0
0.15625 0.8125 0
0.1875 0.8125 0
0.1875 0.75 0
0.21875 0.75 0
0.1875 0.78125 0
0.21875 0.78125 0
0.21875 0.75 0
0.25 0.75 0
0.21875 0.78125 0
0.25 0.78125 0
0.1875 0.78125 0
0.21875 0.78125 0
0.1875 0.8125 0
0.21875 0.8125 0
0.21875 0.78125 0
0.25 0.78125 0
0.21875 0.8125 0
0.25 0.8125 0
0.125 0.8125 0
0.15625 0.8125 0
0.125 0.84375 0
0.15625 0.84375 0
0.15625 0.8125 0
[...]
POINT_DATA 4096
SCALARS State_InstatPDEProblemContainer_0 double 1
LOOKUP_TABLE default
-0.00156089 -0.00156037 -0.00166984 -0.00166945 -0.00156037 -0.00155987 -0.00166945 -0.00166933 -0.00166984 -0.00166945 -0.00177822 -0.00177795 -0.00166945 -0.00166933 -0.00177795 -0.00177819 -0.00155987 -0.00155941 -0.00166933 -0.0016695 -0.00155941 -0.00155896 -0.0016695 -0.00166998 -0.00166933 -0.0016695 -0.00177819 -0.00177896 -0.0016695 -0.00166998 -0.00177896 -0.0017803 -0.00177822 -0.00177795 -0.00188558 -0.00188543 -0.00177795 -0.00177819 -0.00188543 -0.00188598 -0.00188558 -0.00188543 -0.00199152 -0.00199147 -0.00188543 -0.00188598 -0.00199147 -0.00199228 -0.00177819 -0.00177896 -0.00188598 -0.00188727 -0.00177896 -0.0017803 -0.00188727 -0.00188934 -0.00188598 -0.00188727 -0.00199228 -0.00199397 -0.00188727 -0.00188934 -0.00199397 -0.0019966 -0.00155896 -0.00155853 -0.00166998 -0.0016708 -0.00155853 -0.00155811 -0.0016708 -0.00167202 -0.00166998 -0.0016708 -0.0017803 -0.00178227 -0.0016708 -0.00167202 -0.00178227 -0.00178498 -0.00155811 -0.00155769 -0.00167202 -0.00167371 -0.00155769 -0.00155728 -0.00167371 -0.001676 -0.00167202 -0.00167371 -0.00178498 -0.00178857 -0.00167371 -0.001676 -0.00178857 -0.00179325 -0.0017803 -0.00178227 -0.00188934 -0.00189227 -0.00178227 -0.00178498 -0.00189227 -0.00189621 -0.00188934 -0.00189227 -0.0019966 -0.00200026 -0.00189227 -0.00189621 -0.00200026 -0.00200508 -0.00178498 -0.00178857 -0.00189621 -0.00190131 -0.00178857 -0.00179325 -0.00190131 -0.00190783 -0.00189621 -0.00190131 -0.00200508 -0.00201123 -0.00190131 -0.00190783 -0.00201123 -0.00201893 -0.00199152 -0.00199147 -0.00209571 -0.00209574 -0.00199147 -0.00199228 -0.00209574 -0.00209673 -0.00209571 -0.00209574 -0.00219789 -0.00219798 -0.00209574 -0.00209673 -0.00219798 -0.00219908 -0.00199228 -0.00199397 -0.00209673 -0.0020987 -0.00199397 -0.0019966 -0.0020987 -0.00210171 -0.00209673 -0.0020987 -0.00219908 -0.00220121 -0.0020987 -0.00210171 -0.00220121 -0.00220441 -0.00219789 -0.00219798 -0.00229789 -0.00229801 -0.00219798 -0.00219908 -0.00229801 -0.00229915 -0.00229789 -0.00229801 -0.00239558 -0.00239572 -0.00229801 -0.00229915 -0.00239572 -0.00239685 -0.00219908 -0.00220121 -0.00229915 -0.00230132 -0.00220121 -0.00220441 -0.00230132 -0.00230454 -0.00229915 -0.00230132 -0.00239685 -0.00239896 -0.00230132 -0.00230454 -0.00239896 -0.00240207 -0.0019966 -0.00200026 -0.00210171 -0.00210583 -0.00200026 -0.00200508 -0.00210583 -0.00211118 -0.00210171 -0.00210583 -0.00220441 -0.00220874 -0.00210583 -0.00211118 -0.00220874 -0.00221428 -0.00200508 -0.00201123 -0.00211118 -0.00211789 -0.00201123 -0.00201893 -0.00211789 -0.00212614 -0.00211118 -0.00211789 -0.00221428 -0.00222113 -0.00211789 -0.00212614 -0.00222113 -0.00222937 -0.00220441 -0.00220874 -0.00230454 -0.00230887 -0.00220874 -0.00221428 -0.00230887 -0.00231432 -0.00230454 -0.00230887 -0.00240207 -0.00240621 -0.00230887 -0.00231432 -0.00240621 -0.00241136 -0.00221428 -0.00222113 -0.00231432 -0.00232096 -0.00222113 -0.00222937 -0.00232096 -0.0023288 -0.00231432 -0.00232096 -0.00241136 -0.00241754 -0.00232096 -0.0023288 -0.00241754 -0.00242471 -0.00155728 -0.00155687 -0.001676 -0.00167906 -0.00155687 -0.00155644 -0.00167906 -0.00168319 -0.001676 -0.00167906 -0.00179325 -0.00179932 -0.00167906 -0.00168319 -0.00179932 -0.00180724 -0.00155644 -0.00155599 -0.00168319 -0.00168882 -0.00155599 -0.0015555 -0.00168882 -0.00169676 -0.00168319 -0.00168882 -0.00180724 -0.00181771 -0.00168882 -0.00169676 -0.00181771 -0.0018318 -0.00179325 -0.00179932 -0.00190783 -0.0019161 -0.00179932 -0.00180724 -0.0019161 -0.00192659 -0.00190783 -0.0019161 -0.00201893 -0.00202847 -0.0019161 -0.00192659 -0.00202847 -0.00204022 -0.00180724 -0.00181771 -0.00192659 -0.00193994 -0.00181771 -0.0018318 -0.00193994 -0.00195699 -0.00192659 -0.00193994 -0.00204022 -0.00205456 -0.00193994 -0.00195699 -0.00205456 -0.00207191 -0.0015555 -0.00155491 -0.00169676 -0.00170846 -0.00155491 -0.00155414 -0.00170846 -0.00172707 -0.00169676 -0.00170846 -0.0018318 -0.00185124 -0.00170846 -0.00172707 -0.00185124 -0.00187864 -0.00155414 -0.0015528 -0.00172707 -0.00175973 -0.0015528 -0.00155109 -0.00175973 -0.0018304 -0.00172707 -0.00175973 -0.00187864 -0.00191785 -0.00175973 -0.0018304 -0.00191785 -0.00195907 -0.0018318 -0.00185124 -0.00195699 -0.0019787 -0.00185124 -0.00187864 -0.0019787 -0.00200585 -0.00195699 -0.0019787 -0.00207191 -0.00209243 -0.0019787 -0.00200585 -0.00209243 -0.00211549 -0.00187864 -0.00191785 -0.00200585 -0.0020364 -0.00191785 -0.00195907 -0.0020364 -0.00206774 -0.00200585 -0.0020364 -0.00211549 -0.00213966 -0.0020364 -0.00206774 -0.00213966 -0.0021629 -0.00201893 -0.00202847 -0.00212614 -0.0021361 -0.00202847 -0.00204022 -0.0021361 -0.00214799 -0.00212614 -0.0021361 -0.00222937 -0.0022391 -0.0021361 -0.00214799 -0.0022391 -0.00225037 -0.00204022 -0.00205456 -0.00214799 -0.00216196 -0.00205456 -0.00207191 -0.00216196 -0.00217803 -0.00214799 -0.00216196 -0.00225037 -0.00226315 -0.00216196 -0.00217803 -0.00226315 -0.00227724 -0.00222937 -0.0022391 -0.0023288 -0.00233785 -0.0022391 -0.00225037 -0.00233785 -0.00234805 -0.0023288 -0.00233785 -0.00242471 -0.00243282 -0.00233785 -0.00234805 -0.00243282 -0.00244173 -0.00225037 -0.00226315 -0.00234805 -0.00235925 -0.00226315 -0.00227724 -0.00235925 -0.00237118 -0.00234805 -0.00235925 -0.00244173 -0.00245125 -0.00235925 -0.00237118 -0.00245125 -0.0024611 -0.00207191 -0.00209243 -0.00217803 -0.00219589 -0.00209243 -0.00211549 -0.00219589 -0.00221482 -0.00217803 -0.00219589 -0.00227724 -0.00229221 -0.00219589 -0.00221482 -0.00229221 -0.0023074 -0.00211549 -0.00213966 -0.00221482 -0.00223364 -0.00213966 -0.0021629 -0.00223364 -0.00225137 -0.00221482 -0.00223364 -0.0023074 -0.00232204 -0.00223364 -0.00225137 -0.00232204 -0.00233555 -0.00227724 -0.00229221 -0.00237118 -0.00238342 -0.00229221 -0.0023074 -0.00238342 -0.00239545 -0.00237118 -0.00238342 -0.0024611 -0.00247091 -0.00238342 -0.00239545 -0.00247091 -0.00248029 -0.0023074 -0.00232204 -0.00239545 -0.00240674 -0.00232204 -0.00233555 -0.00240674 -0.00241697 -0.00239545 -0.00240674 -0.00248029 -0.00248888 -0.00240674 -0.00241697 -0.00248888 -0.0024965 -0.00239558 -0.00239572 -0.00249095 -0.00249109 -0.00239572 -0.00239685 -0.00249109 -0.00249214 -0.00249095 -0.00249109 -0.002584 -0.00258412 -0.00249109 -0.00249214 -0.00258412 -0.00258508 -0.00239685 -0.00239896 -0.00249214 -0.00249412 -0.00239896 -0.00240207 -0.00249412 -0.00249702 -0.00249214 -0.00249412 -0.00258508 -0.00258686 -0.00249412 -0.00249702 -0.00258686 -0.00258947 -0.002584 -0.00258412 -0.00267481 -0.0026749 -0.00258412 -0.00258508 -0.0026749 -0.00267573 -0.00267481 -0.0026749 -0.00276349 -0.00276354 -0.0026749 -0.00267573 -0.00276354 -0.00276421 -0.00258508 -0.00258686 -0.00267573 -0.00267728 -0.00258686 -0.00258947 -0.00267728 -0.00267953 -0.00267573 -0.00267728 -0.00276421 -0.00276549 -0.00267728 -0.00267953 -0.00276549 -0.00276736 -0.00240207 -0.00240621 -0.00249702 -0.00250083 -0.00240621 -0.00241136 -0.00250083 -0.00250554 -0.00249702 -0.00250083 -0.00258947 -0.00259286 -0.00250083 -0.00250554 -0.00259286 -0.00259702 -0.00241136 -0.00241754 -0.00250554 -0.00251109 -0.00241754 -0.00242471 -0.00251109 -0.00251744 -0.00250554 -0.00251109 -0.00259702 -0.00260187 -0.00251109 -0.00251744 -0.00260187 -0.00260732 -0.00258947 -0.00259286 -0.00267953 -0.00268246 -0.00259286 -0.00259702 -0.00268246 -0.002686 -0.00267953 -0.00268246 -0.00276736 -0.00276978 -0.00268246 -0.002686 -0.00276978 -0.00277269 -0.00259702 -0.00260187 -0.002686 -0.0026901 -0.00260187 -0.00260732 -0.0026901 -0.00269465 -0.002686 -0.0026901 -0.00277269 -0.00277601 -0.0026901 -0.00269465 -0.00277601 -0.00277966 -0.00276349 -0.00276354 -0.00285018 -0.00285018 -0.00276354 -0.00276421 -0.00285018 -0.00285068 -0.00285018 -0.00285018 -0.00293505 -0.002935 -0.00285018 -0.00285068 -0.002935 -0.00293532 -0.00276421 -0.00276549 -0.00285068 -0.00285167 -0.00276549 -0.00276736 -0.00285167 -0.00285313 -0.00285068 -0.00285167 -0.00293532 -0.002936 -0.00285167 -0.00285313 -0.002936 -0.00293701 -0.00293505 -0.002935 -0.00301831 -0.00301819 -0.002935 -0.00293532 -0.00301819 -0.00301833 -0.00301831 -0.00301819 -0.0031 -0.0031 -0.00301819 -0.00301833 -0.0031 -0.0031 -0.00293532 -0.002936 -0.00301833 -0.00301869 -0.002936 -0.00293701 -0.00301869 -0.00301922 -0.00301833 -0.00301869 -0.0031 -0.0031 -0.00301869 -0.00301922 -0.0031 -0.0031 -0.00276736 -0.00276978 -0.00285313 -0.002855 -0.00276978 -0.00277269 -0.002855 -0.00285725 -0.00285313 -0.002855 -0.00293701 -0.00293832 -0.002855 -0.00285725 -0.00293832 -0.00293988 -0.00277269 -0.00277601 -0.00285725 -0.00285981 -0.00277601 -0.00277966 -0.00285981 -0.00286257 -0.00285725 -0.00285981 -0.00293988 -0.00294164 -0.00285981 -0.00286257 -0.00294164 -0.00294353 -0.00293701 -0.00293832 -0.00301922 -0.00301991 -0.00293832 -0.00293988 -0.00301991 -0.00302074 -0.00301922 -0.00301991 -0.0031 -0.0031 -0.00301991 -0.00302074 -0.0031 -0.0031 -0.00293988 -0.00294164 -0.00302074 -0.00302166 -0.00294164 -0.00294353 -0.00302166 -0.00302265 -0.00302074 -0.00302166 -0.0031 -0.0031 -0.00302166 -0.00302265 -0.0031 -0.0031 -0.00242471 -0.00243282 -0.00251744 -0.00252448 -0.00243282 -0.00244173 -0.00252448 -0.00253205 -0.00251744 -0.00252448 -0.00260732 -0.00261326 -0.00252448 -0.00253205 -0.00261326 -0.00261952 -0.00244173 -0.00245125 -0.00253205 -0.00253994 -0.00245125 -0.0024611 -0.00253994 -0.00254789 -0.00253205 -0.00253994 -0.00261952 -0.00262591 -0.00253994 -0.00254789 -0.00262591 -0.00263218 -0.00260732 -0.00261326 -0.00269465 -0.00269951 -0.00261326 -0.00261952 -0.00269951 -0.00270455 -0.00269465 -0.00269951 -0.00277966 -0.00278351 -0.00269951 -0.00270455 -0.00278351 -0.00278742 -0.00261952 -0.00262591 -0.00270455 -0.00270958 -0.00262591 -0.00263218 -0.00270958 -0.00271439 -0.00270455 -0.00270958 -0.00278742 -0.00279124 -0.00270958 -0.00271439 -0.00279124 -0.00279481 -0.0024611 -0.00247091 -0.00254789 -0.0025556 -0.00247091 -0.00248029 -0.0025556 -0.00256277 -0.00254789 -0.0025556 -0.00263218 -0.0026381 -0.0025556 -0.00256277 -0.0026381 -0.00264345 -0.00248029 -0.00248888 -0.00256277 -0.00256917 -0.00248888 -0.0024965 -0.00256917 -0.00257469 -0.00256277 -0.00256917 -0.00264345 -0.00264807 -0.00256917 -0.00257469 -0.00264807 -0.0026519 -0.00263218 -0.0026381 -0.00271439 -0.00271881 -0.0026381 -0.00264345 -0.00271881 -0.00272267 -0.00271439 -0.00271881 -0.00279481 -0.00279798 -0.00271881 -0.00272267 -0.00279798 -0.00280062 -0.00264345 -0.00264807 -0.00272267 -0.00272585 -0.00264807 -0.0026519 -0.00272585 -0.00272833 -0.00272267 -0.00272585 -0.00280062 -0.00280267 -0.00272585 -0.00272833 -0.00280267 -0.00280411 -0.00277966 -0.00278351 -0.00286257 -0.00286546 -0.00278351 -0.00278742 -0.00286546 -0.00286834 -0.00286257 -0.00286546 -0.00294353 -0.00294548 -0.00286546 -0.00286834 -0.00294548 -0.0029474 -0.00278742 -0.00279124 -0.00286834 -0.00287109 -0.00279124 -0.00279481 -0.00287109 -0.00287359 -0.00286834 -0.00287109 -0.0029474 -0.00294919 -0.00287109 -0.00287359 -0.00294919 -0.00295077 -0.00294353 -0.00294548 -0.00302265 -0.00302366 -0.00294548 -0.0029474 -0.00302366 -0.00302463 -0.00302265 -0.00302366 -0.0031 -0.0031 -0.00302366 -0.00302463 -0.0031 -0.0031 -0.0029474 -0.00294919 -0.00302463 -0.00302553 -0.00294919 -0.00295077 -0.00302553 -0.00302629 -0.00302463 -0.00302553 -0.0031 -0.0031 -0.00302553 -0.00302629 -0.0031 -0.0031 -0.00279481 -0.00279798 -0.00287359 -0.00287572 -0.00279798 -0.00280062 -0.00287572 -0.0028774 -0.00287359 -0.00287572 -0.00295077 -0.00295205 -0.00287572 -0.0028774 -0.00295205 -0.00295299 -0.00280062 -0.00280267 -0.0028774 -0.00287858 -0.00280267 -0.00280411 -0.00287858 -0.00287926 -0.0028774 -0.00287858 -0.00295299 -0.00295354 -0.00287858 -0.00287926 -0.00295354 -0.00295372 -0.00295077 -0.00295205 -0.00302629 -0.00302688 -0.00295205 -0.00295299 -0.00302688 -0.00302727 -0.00302629 -0.00302688 -0.0031 -0.0031 -0.00302688 -0.00302727 -0.0031 -0.0031 -0.00295299 -0.00295354 -0.00302727 -0.00302743 -0.00295354 -0.00295372 -0.00302743 -0.00302738 -0.00302727 -0.00302743 -0.0031 -0.0031 -0.00302743 -0.00302738 -0.0031 -0.0031 -0.00155109 -0.0017867 -0.0018304 -0.00188716 -0.0017867 -0.00192653 -0.00188716 -0.00196547 -0.0018304 -0.00188716 -0.00195907 -0.00200202 -0.00188716 -0.00196547 -0.00200202 -0.00204343 -0.00192653 -0.00202145 -0.00196547 -0.00203925 -0.00202145 -0.00209323 -0.00203925 -0.00210229 -0.00196547 -0.00203925 -0.00204343 -0.00209085 -0.00203925 -0.00210229 -0.00209085 -0.00213802 -0.00195907 -0.00200202 -0.00206774 -0.00209673 -0.00200202 -0.00204343 -0.00209673 -0.00212596 -0.00206774 -0.00209673 -0.0021629 -0.0021846 -0.00209673 -0.00212596 -0.0021846 -0.00220556 -0.00204343 -0.00209085 -0.00212596 -0.00215701 -0.00209085 -0.00213802 -0.00215701 -0.0021902 -0.00212596 -0.00215701 -0.00220556 -0.0022275 -0.00215701 -0.0021902 -0.0022275 -0.00225088 -0.00209323 -0.00215039 -0.00210229 -0.00215532 -0.00215039 -0.00219714 -0.00215532 -0.00219994 -0.00210229 -0.00215532 -0.00213802 -0.00218146 -0.00215532 -0.00219994 -0.00218146 -0.0022201 -0.00219714 -0.00223586 -0.00219994 -0.00223754 -0.00223586 -0.00226808 -0.00223754 -0.00226921 -0.00219994 -0.00223754 -0.0022201 -0.00225382 -0.00223754 -0.00226921 -0.00225382 -0.00228291 -0.00213802 -0.00218146 -0.0021902 -0.00222322 -0.00218146 -0.0022201 -0.00222322 -0.00225436 -0.0021902 -0.00222322 -0.00225088 -0.00227512 -0.00222322 -0.00225436 -0.00227512 -0.00229905 -0.0022201 -0.00225382 -0.00225436 -0.00228271 -0.00225382 -0.00228291 -0.00228271 -0.00230792 -0.00225436 -0.00228271 -0.00229905 -0.00232173 -0.00228271 -0.00230792 -0.00232173 -0.00234254 -0.0021629 -0.0021846 -0.00225137 -0.00226766 -0.0021846 -0.00220556 -0.00226766 -0.0022832 -0.00225137 -0.00226766 -0.00233555 -0.00234784 -0.00226766 -0.0022832 -0.00234784 -0.00235935 -0.00220556 -0.0022275 -0.0022832 -0.00229899 -0.0022275 -0.00225088 -0.00229899 -0.00231569 -0.0022832 -0.00229899 -0.00235935 -0.00237079 -0.00229899 -0.00231569 -0.00237079 -0.00238269 -0.00233555 -0.00234784 -0.00241697 -0.00242613 -0.00234784 -0.00235935 -0.00242613 -0.00243455 -0.00241697 -0.00242613 -0.0024965 -0.00250317 -0.00242613 -0.00243455 -0.00250317 -0.00250914 -0.00235935 -0.00237079 -0.00243455 -0.00244271 -0.00237079 -0.00238269 -0.00244271 -0.00245107 -0.00243455 -0.00244271 -0.00250914 -0.00251478 -0.00244271 -0.00245107 -0.00251478 -0.00252044 -0.00225088 -0.00227512 -0.00231569 -0.00233323 -0.00227512 -0.00229905 -0.00233323 -0.00235108 -0.00231569 -0.00233323 -0.00238269 -0.00239524 -0.00233323 -0.00235108 -0.00239524 -0.00240822 -0.00229905 -0.00232173 -0.00235108 -0.00236854 -0.00232173 -0.00234254 -0.00236854 -0.00238504 -0.00235108 -0.00236854 -0.00240822 -0.00242123 -0.00236854 -0.00238504 -0.00242123 -0.00243383 -0.00238269 -0.00239524 -0.00245107 -0.00245984 -0.00239524 -0.00240822 -0.00245984 -0.00246902 -0.00245107 -0.00245984 -0.00252044 -0.00252635 -0.00245984 -0.00246902 -0.00252635 -0.00253257 -0.00240822 -0.00242123 -0.00246902 -0.00247839 -0.00242123 -0.00243383 -0.00247839 -0.00248766 -0.00246902 -0.00247839 -0.00253257 -0.00253903 -0.00247839 -0.00248766 -0.00253903 -0.00254555 -0.00226808 -0.00229483 -0.00226921 -0.00229573 -0.00229483 -0.00231687 -0.00229573 -0.00231774 -0.00226921 -0.00229573 -0.00228291 -0.00230769 -0.00229573 -0.00231774 -0.00230769 -0.0023285 -0.00231687 -0.00233475 -0.00231774 -0.00233568 -0.00233475 -0.00234889 -0.00233568 -0.00234993 -0.00231774 -0.00233568 -0.0023285 -0.00234563 -0.00233568 -0.00234993 -0.00234563 -0.00235933 -0.00228291 -0.00230769 -0.00230792 -0.00232987 -0.00230769 -0.0023285 -0.00232987 -0.00234862 -0.00230792 -0.00232987 -0.00234254 -0.00236112 -0.00232987 -0.00234862 -0.00236112 -0.00237729 -0.0023285 -0.00234563 -0.00234862 -0.00236425 -0.00234563 -0.00235933 -0.00236425 -0.00237686 -0.00234862 -0.00236425 -0.00237729 -0.00239096 -0.00236425 -0.00237686 -0.00239096 -0.00240211 -0.00234889 -0.0023596 -0.00234993 -0.00236076 -0.0023596 -0.00236709 -0.00236076 -0.00236835 -0.00234993 -0.00236076 -0.00235933 -0.00236978 -0.00236076 -0.00236835 -0.00236978 -0.00237715 -0.00236709 -0.00237153 -0.00236835 -0.00237286 -0.00237153 -0.002373 -0.00237286 -0.00237435 -0.00236835 -0.00237286 -0.00237715 -0.00238152 -0.00237286 -0.00237435 -0.00238152 -0.00238297 -0.00235933 -0.00236978 -0.00237686 -0.00238655 -0.00236978 -0.00237715 -0.00238655 -0.00239341 -0.00237686 -0.00238655 -0.00240211 -0.00241075 -0.00238655 -0.00239341 -0.00241075 -0.0024169 -0.00237715 -0.00238152 -0.00239341 -0.00239749 -0.00238152 -0.00238297 -0.00239749 -0.00239884 -0.00239341 -0.00239749 -0.0024169 -0.00242057 -0.00239749 -0.00239884 -0.00242057 -0.00242178 -0.00234254 -0.00236112 -0.00238504 -0.00240012 -0.00236112 -0.00237729 -0.00240012 -0.00241351 -0.00238504 -0.00240012 -0.00243383 -0.00244562 -0.00240012 -0.00241351 -0.00244562 -0.00245628 -0.00237729 -0.00239096 -0.00241351 -0.002425 -0.00239096 -0.00240211 -0.002425 -0.00243449 -0.00241351 -0.002425 -0.00245628 -0.00246559 -0.002425 -0.00243449 -0.00246559 -0.00247336 -0.00243383 -0.00244562 -0.00248766 -0.00249652 -0.00244562 -0.00245628 -0.00249652 -0.00250468 -0.00248766 -0.00249652 -0.00254555 -0.00255191 -0.00249652 -0.00250468 -0.00255191 -0.00255789 -0.00245628 -0.00246559 -0.00250468 -0.00251192 -0.00246559 -0.00247336 -0.00251192 -0.00251804 -0.00250468 -0.00251192 -0.00255789 -0.00256327 -0.00251192 -0.00251804 -0.00256327 -0.00256789 -0.00240211 -0.00241075 -0.00243449 -0.00244191 -0.00241075 -0.0024169 -0.00244191 -0.00244722 -0.00243449 -0.00244191 -0.00247336 -0.0024795 -0.00244191 -0.00244722 -0.0024795 -0.00248391 -0.0024169 -0.00242057 -0.00244722 -0.0024504 -0.00242057 -0.00242178 -0.0024504 -0.00245144 -0.00244722 -0.0024504 -0.00248391 -0.00248657 -0.0024504 -0.00245144 -0.00248657 -0.00248743 -0.00247336 -0.0024795 -0.00251804 -0.00252292 -0.0024795 -0.00248391 -0.00252292 -0.00252645 -0.00251804 -0.00252292 -0.00256789 -0.0025716 -0.00252292 -0.00252645 -0.0025716 -0.00257431 -0.00248391 -0.00248657 -0.00252645 -0.00252858 -0.00248657 -0.00248743 -0.00252858 -0.00252925 -0.00252645 -0.00252858 -0.00257431 -0.00257593 -0.00252858 -0.00252925 -0.00257593 -0.00257644 -0.0024965 -0.00250317 -0.00257469 -0.00257937 -0.00250317 -0.00250914 -0.00257937 -0.0025834 -0.00257469 -0.00257937 -0.0026519 -0.00265498 -0.00257937 -0.0025834 -0.00265498 -0.00265747 -0.00250914 -0.00251478 -0.0025834 -0.00258706 -0.00251478 -0.00252044 -0.00258706 -0.00259064 -0.0025834 -0.00258706 -0.00265747 -0.0026596 -0.00258706 -0.00259064 -0.0026596 -0.00266159 -0.0026519 -0.00265498 -0.00272833 -0.00273016 -0.00265498 -0.00265747 -0.00273016 -0.00273146 -0.00272833 -0.00273016 -0.00280411 -0.00280499 -0.00273016 -0.00273146 -0.00280499 -0.00280541 -0.00265747 -0.0026596 -0.00273146 -0.00273242 -0.0026596 -0.00266159 -0.00273242 -0.00273321 -0.00273146 -0.00273242 -0.00280541 -0.00280552 -0.00273242 -0.00273321 -0.00280552 -0.00280547 -0.00252044 -0.00252635 -0.00259064 -0.00259435 -0.00252635 -0.00253257 -0.00259435 -0.00259829 -0.00259064 -0.00259435 -0.00266159 -0.00266362 -0.00259435 -0.00259829 -0.00266362 -0.00266583 -0.00253257 -0.00253903 -0.00259829 -0.00260247 -0.00253903 -0.00254555 -0.00260247 -0.00260678 -0.00259829 -0.00260247 -0.00266583 -0.00266824 -0.00260247 -0.00260678 -0.00266824 -0.00267082 -0.00266159 -0.00266362 -0.00273321 -0.002734 -0.00266362 -0.00266583 -0.002734 -0.00273492 -0.00273321 -0.002734 -0.00280547 -0.0028054 -0.002734 -0.00273492 -0.0028054 -0.00280542 -0.00266583 -0.00266824 -0.00273492 -0.00273602 -0.00266824 -0.00267082 -0.00273602 -0.00273731 -0.00273492 -0.00273602 -0.00280542 -0.00280561 -0.00273602 -0.00273731 -0.00280561 -0.00280597 -0.00280411 -0.00280499 -0.00287926 -0.00287947 -0.00280499 -0.00280541 -0.00287947 -0.00287931 -0.00287926 -0.00287947 -0.00295372 -0.00295355 -0.00287947 -0.00287931 -0.00295355 -0.0029531 -0.00280541 -0.00280552 -0.00287931 -0.00287888 -0.00280552 -0.00280547 -0.00287888 -0.00287832