# vtk DataFile Version 3.0
#This file was generated by the deal.II library on 2018/7/10 at 10:46:59
ASCII
DATASET UNSTRUCTURED_GRID

POINTS 4096 double
0 0.5 0
0.03125 0.5 0
0 0.53125 0
0.03125 0.53125 0
0.03125 0.5 0
0.0625 0.5 0
0.03125 0.53125 0
0.0625 0.53125 0
0 0.53125 0
0.03125 0.53125 0
0 0.5625 0
0.03125 0.5625 0
0.03125 0.53125 0
0.0625 0.53125 0
0.03125 0.5625 0
0.0625 0.5625 0
0.0625 0.5 0
0.09375 0.5 0
0.0625 0.53125 0
0.09375 0.53125 0
0.09375 0.5 0
0.125 0.5 0
0.09375 0.53125 0
0.125 0.53125 0
0.0625 0.53125 0
0.09375 0.53125 0
0.0625 0.5625 0
0.09375 0.5625 0
0.09375 0.53125 0
0.125 0.53125 0
0.09375 0.5625 0
0.125 0.5625 0
0 0.5625 0
0.03125 0.5625 0
0 0.59375 0
0.03125 0.59375 0
0.03125 0.5625 0
0.0625 0.5625 0
0.03125 0.59375 0
0.0625 0.59375 0
0 0.59375 0
0.03125 0.59375 0
0 0.625 0
0.03125 0.625 0
0.03125 0.59375 0
0.0625 0.59375 0
0.03125 0.625 0
0.0625 0.625 0
0.0625 0.5625 0
0.09375 0.5625 0
0.0625 0.59375 0
0.09375 0.59375 0
0.09375 0.5625 0
0.125 0.5625 0
0.09375 0.59375 0
0.125 0.59375 0
0.0625 0.59375 0
0.09375 0.59375 0
0.0625 0.625 0
0.09375 0.625 0
0.09375 0.59375 0
0.125 0.59375 0
0.09375 0.625 0
0.125 0.625 0
0.125 0.5 0
0.15625 0.5 0
0.125 0.53125 0
0.15625 0.53125 0
0.15625 0.5 0
0.1875 0.5 0
0.15625 0.53125 0
0.1875 0.53125 0
0.125 0.53125 0
0.15625 0.53125 0
0.125 0.5625 0
0.15625 0.5625 0
0.15625 0.53125 0
0.1875 0.53125 0
0.15625 0.5625 0
0.1875 0.5625 0
0.1875 0.5 0
0.21875 0.5 0
0.1875 0.53125 0
0.21875 0.53125 0
0.21875 0.5 0
0.25 0.5 0
0.21875 0.53125 0
0.25 0.53125 0
0.1875 0.53125 0
0.21875 0.53125 0
0.1875 0.5625 0
0.21875 0.5625 0
0.21875 0.53125 0
0.25 0.53125 0
0.21875 0.5625 0
0.25 0.5625 0
0.125 0.5625 0
0.15625 0.5625 0
0.125 0.59375 0
0.15625 0.59375 0
0.15625 0.5625 0
0.1875 0.5625 0
0.15625 0.59375 0
0.1875 0.59375 0
0.125 0.59375 0
0.15625 0.59375 0
0.125 0.625 0
0.15625 0.625 0
0.15625 0.59375 0
0.1875 0.59375 0
0.15625 0.625 0
0.1875 0.625 0
0.1875 0.5625 0
0.21875 0.5625 0
0.1875 0.59375 0
0.21875 0.59375 0
0.21875 0.5625 0
0.25 0.5625 0
0.21875 0.59375 0
0.25 0.59375 0
0.1875 0.59375 0
0.21875 0.59375 0
0.1875 0.625 0
0.21875 0.625 0
0.21875 0.59375 0
0.25 0.59375 0
0.21875 0.625 0
0.25 0.625 0
0 0.625 0
0.03125 0.625 0
0 0.65625 0
0.03125 0.65625 0
0.03125 0.625 0
0.0625 0.625 0
0.03125 0.65625 0
0.0625 0.65625 0
0 0.65625 0
0.03125 0.65625 0
0 0.6875 0
0.03125 0.6875 0
0.03125 0.65625 0
0.0625 0.65625 0
0.03125 0.6875 0
0.0625 0.6875 0
0.0625 0.625 0
0.09375 0.625 0
0.0625 0.65625 0
0.09375 0.65625 0
0.09375 0.625 0
0.125 0.625 0
0.09375 0.65625 0
0.125 0.65625 0
0.0625 0.65625 0
0.09375 0.65625 0
0.0625 0.6875 0
0.09375 0.6875 0
0.09375 0.65625 0
0.125 0.65625 0
0.09375 0.6875 0
0.125 0.6875 0
0 0.6875 0
0.03125 0.6875 0
0 0.71875 0
0.03125 0.71875 0
0.03125 0.6875 0
0.0625 0.6875 0
0.03125 0.71875 0
0.0625 0.71875 0
0 0.71875 0
0.03125 0.71875 0
0 0.75 0
0.03125 0.75 0
0.03125 0.71875 0
0.0625 0.71875 0
0.03125 0.75 0
0.0625 0.75 0
0.0625 0.6875 0
0.09375 0.6875 0
0.0625 0.71875 0
0.09375 0.71875 0
0.09375 0.6875 0
0.125 0.6875 0
0.09375 0.71875 0
0.125 0.71875 0
0.0625 0.71875 0
0.09375 0.71875 0
0.0625 0.75 0
0.09375 0.75 0
0.09375 0.71875 0
0.125 0.71875 0
0.09375 0.75 0
0.125 0.75 0
0.125 0.625 0
0.15625 0.625 0
0.125 0.65625 0
0.15625 0.65625 0
0.15625 0.625 0
0.1875 0.625 0
0.15625 0.65625 0
0.1875 0.65625 0
0.125 0.65625 0
0.15625 0.65625 0
0.125 0.6875 0
0.15625 0.6875 0
0.15625 0.65625 0
0.1875 0.65625 0
0.15625 0.6875 0
0.1875 0.6875 0
0.1875 0.625 0
0.21875 0.625 0
0.1875 0.65625 0
0.21875 0.65625 0
0.21875 0.625 0
0.25 0.625 0
0.21875 0.65625 0
0.25 0.65625 0
0.1875 0.65625 0
0.21875 0.65625 0
0.1875 0.6875 0
0.21875 0.6875 0
0.21875 0.65625 0
0.25 0.65625 0
0.21875 0.6875 0
0.25 0.6875 0
0.125 0.6875 0
0.15625 0.6875 0
0.125 0.71875 0
0.15625 0.71875 0
0.15625 0.6875 0
0.1875 0.6875 0
0.15625 0.71875 0
0.1875 0.71875 0
0.125 0.71875 0
0.15625 0.71875 0
0.125 0.75 0
0.15625 0.75 0
0.15625 0.71875 0
0.1875 0.71875 0
0.15625 0.75 0
0.1875 0.75 0
0.1875 0.6875 0
0.21875 0.6875 0
0.1875 0.71875 0
0.21875 0.71875 0
0.21875 0.6875 0
0.25 0.6875 0
0.21875 0.71875 0
0.25 0.71875 0
0.1875 0.71875 0
0.21875 0.71875 0
0.1875 0.75 0
0.21875 0.75 0
0.21875 0.71875 0
0.25 0.71875 0
0.21875 0.75 0
0.25 0.75 0
0.25 0.5 0
0.28125 0.5 0
0.25 0.53125 0
0.28125 0.53125 0
0.28125 0.5 0
0.3125 0.5 0
0.28125 0.53125 0
0.3125 0.53125 0
0.25 0.53125 0
0.28125 0.53125 0
0.25 0.5625 0
0.28125 0.5625 0
0.28125 0.53125 0
0.3125 0.53125 0
0.28125 0.5625 0
0.3125 0.5625 0
0.3125 0.5 0
0.34375 0.5 0
0.3125 0.53125 0
0.34375 0.53125 0
0.34375 0.5 0
0.375 0.5 0
0.34375 0.53125 0
0.375 0.53125 0
0.3125 0.53125 0
0.34375 0.53125 0
0.3125 0.5625 0
0.34375 0.5625 0
0.34375 0.53125 0
0.375 0.53125 0
0.34375 0.5625 0
0.375 0.5625 0
0.25 0.5625 0
0.28125 0.5625 0
0.25 0.59375 0
0.28125 0.59375 0
0.28125 0.5625 0
0.3125 0.5625 0
0.28125 0.59375 0
0.3125 0.59375 0
0.25 0.59375 0
0.28125 0.59375 0
0.25 0.625 0
0.28125 0.625 0
0.28125 0.59375 0
0.3125 0.59375 0
0.28125 0.625 0
0.3125 0.625 0
0.3125 0.5625 0
0.34375 0.5625 0
0.3125 0.59375 0
0.34375 0.59375 0
0.34375 0.5625 0
0.375 0.5625 0
0.34375 0.59375 0
0.375 0.59375 0
0.3125 0.59375 0
0.34375 0.59375 0
0.3125 0.625 0
0.34375 0.625 0
0.34375 0.59375 0
0.375 0.59375 0
0.34375 0.625 0
0.375 0.625 0
0.375 0.5 0
0.40625 0.5 0
0.375 0.53125 0
0.40625 0.53125 0
0.40625 0.5 0
0.4375 0.5 0
0.40625 0.53125 0
0.4375 0.53125 0
0.375 0.53125 0
0.40625 0.53125 0
0.375 0.5625 0
0.40625 0.5625 0
0.40625 0.53125 0
0.4375 0.53125 0
0.40625 0.5625 0
0.4375 0.5625 0
0.4375 0.5 0
0.46875 0.5 0
0.4375 0.53125 0
0.46875 0.53125 0
0.46875 0.5 0
0.5 0.5 0
0.46875 0.53125 0
0.5 0.53125 0
0.4375 0.53125 0
0.46875 0.53125 0
0.4375 0.5625 0
0.46875 0.5625 0
0.46875 0.53125 0
0.5 0.53125 0
0.46875 0.5625 0
0.5 0.5625 0
0.375 0.5625 0
0.40625 0.5625 0
0.375 0.59375 0
0.40625 0.59375 0
0.40625 0.5625 0
0.4375 0.5625 0
0.40625 0.59375 0
0.4375 0.59375 0
0.375 0.59375 0
0.40625 0.59375 0
0.375 0.625 0
0.40625 0.625 0
0.40625 0.59375 0
0.4375 0.59375 0
0.40625 0.625 0
0.4375 0.625 0
0.4375 0.5625 0
0.46875 0.5625 0
0.4375 0.59375 0
0.46875 0.59375 0
0.46875 0.5625 0
0.5 0.5625 0
0.46875 0.59375 0
0.5 0.59375 0
0.4375 0.59375 0
0.46875 0.59375 0
0.4375 0.625 0
0.46875 0.625 0
0.46875 0.59375 0
0.5 0.59375 0
0.46875 0.625 0
0.5 0.625 0
0.25 0.625 0
0.28125 0.625 0
0.25 0.65625 0
0.28125 0.65625 0
0.28125 0.625 0
0.3125 0.625 0
0.28125 0.65625 0
0.3125 0.65625 0
0.25 0.65625 0
0.28125 0.65625 0
0.25 0.6875 0
0.28125 0.6875 0
0.28125 0.65625 0
0.3125 0.65625 0
0.28125 0.6875 0
0.3125 0.6875 0
0.3125 0.625 0
0.34375 0.625 0
0.3125 0.65625 0
0.34375 0.65625 0
0.34375 0.625 0
0.375 0.625 0
0.34375 0.65625 0
0.375 0.65625 0
0.3125 0.65625 0
0.34375 0.65625 0
0.3125 0.6875 0
0.34375 0.6875 0
0.34375 0.65625 0
0.375 0.65625 0
0.34375 0.6875 0
0.375 0.6875 0
0.25 0.6875 0
0.28125 0.6875 0
0.25 0.71875 0
0.28125 0.71875 0
0.28125 0.6875 0
0.3125 0.6875 0
0.28125 0.71875 0
0.3125 0.71875 0
0.25 0.71875 0
0.28125 0.71875 0
0.25 0.75 0
0.28125 0.75 0
0.28125 0.71875 0
0.3125 0.71875 0
0.28125 0.75 0
0.3125 0.75 0
0.3125 0.6875 0
0.34375 0.6875 0
0.3125 0.71875 0
0.34375 0.71875 0
0.34375 0.6875 0
0.375 0.6875 0
0.34375 0.71875 0
0.375 0.71875 0
0.3125 0.71875 0
0.34375 0.71875 0
0.3125 0.75 0
0.34375 0.75 0
0.34375 0.71875 0
0.375 0.71875 0
0.34375 0.75 0
0.375 0.75 0
0.375 0.625 0
0.40625 0.625 0
0.375 0.65625 0
0.40625 0.65625 0
0.40625 0.625 0
0.4375 0.625 0
0.40625 0.65625 0
0.4375 0.65625 0
0.375 0.65625 0
0.40625 0.65625 0
0.375 0.6875 0
0.40625 0.6875 0
0.40625 0.65625 0
0.4375 0.65625 0
0.40625 0.6875 0
0.4375 0.6875 0
0.4375 0.625 0
0.46875 0.625 0
0.4375 0.65625 0
0.46875 0.65625 0
0.46875 0.625 0
0.5 0.625 0
0.46875 0.65625 0
0.5 0.65625 0
0.4375 0.65625 0
0.46875 0.65625 0
0.4375 0.6875 0
0.46875 0.6875 0
0.46875 0.65625 0
0.5 0.65625 0
0.46875 0.6875 0
0.5 0.6875 0
0.375 0.6875 0
0.40625 0.6875 0
0.375 0.71875 0
0.40625 0.71875 0
0.40625 0.6875 0
0.4375 0.6875 0
0.40625 0.71875 0
0.4375 0.71875 0
0.375 0.71875 0
0.40625 0.71875 0
0.375 0.75 0
0.40625 0.75 0
0.40625 0.71875 0
0.4375 0.71875 0
0.40625 0.75 0
0.4375 0.75 0
0.4375 0.6875 0
0.46875 0.6875 0
0.4375 0.71875 0
0.46875 0.71875 0
0.46875 0.6875 0
0.5 0.6875 0
0.46875 0.71875 0
0.5 0.71875 0
0.4375 0.71875 0
0.46875 0.71875 0
0.4375 0.75 0
0.46875 0.75 0
0.46875 0.71875 0
0.5 0.71875 0
0.46875 0.75 0
0.5 0.75 0
0 0.75 0
0.03125 0.75 0
0 0.78125 0
0.03125 0.78125 0
0.03125 0.75 0
0.0625 0.75 0
0.03125 0.78125 0
0.0625 0.78125 0
0 0.78125 0
0.03125 0.78125 0
0 0.8125 0
0.03125 0.8125 0
0.03125 0.78125 0
0.0625 0.78125 0
0.03125 0.8125 0
0.0625 0.8125 0
0.0625 0.75 0
0.09375 0.75 0
0.0625 0.78125 0
0.09375 0.78125 0
0.09375 0.75 0
0.125 0.75 0
0.09375 0.78125 0
0.125 0.78125 0
0.0625 0.78125 0
0.09375 0.78125 0
0.0625 0.8125 0
0.09375 0.8125 0
0.09375 0.78125 0
0.125 0.78125 0
0.09375 0.8125 0
0.125 0.8125 0
0 0.8125 0
0.03125 0.8125 0
0 0.84375 0
0.03125 0.84375 0
0.03125 0.8125 0
0.0625 0.8125 0
0.03125 0.84375 0
0.0625 0.84375 0
0 0.84375 0
0.03125 0.84375 0
0 0.875 0
0.03125 0.875 0
0.03125 0.84375 0
0.0625 0.84375 0
0.03125 0.875 0
0.0625 0.875 0
0.0625 0.8125 0
0.09375 0.8125 0
0.0625 0.84375 0
0.09375 0.84375 0
0.09375 0.8125 0
0.125 0.8125 0
0.09375 0.84375 0
0.125 0.84375 0
0.0625 0.84375 0
0.09375 0.84375 0
0.0625 0.875 0
0.09375 0.875 0
0.09375 0.84375 0
0.125 0.84375 0
0.09375 0.875 0
0.125 0.875 0
0.125 0.75 0
0.15625 0.75 0
0.125 0.78125 0
0.15625 0.78125 0
0.15625 0.75 0
0.1875 0.75 0
0.15625 0.78125 0
0.1875 0.78125 0
0.125 0.78125 0
0.15625 0.78125 0
0.125 0.8125 0
0.15625 0.8125 0
0.15625 0.78125 0
0.1875 0.78125 0
0.15625 0.8125 0
0.1875 0.8125 0
0.1875 0.75 0
0.21875 0.75 0
0.1875 0.78125 0
0.21875 0.78125 0
0.21875 0.75 0
0.25 0.75 0
0.21875 0.78125 0
0.25 0.78125 0
0.1875 0.78125 0
0.21875 0.78125 0
0.1875 0.8125 0
0.21875 0.8125 0
0.21875 0.78125 0
0.25 0.78125 0
0.21875 0.8125 0
0.25 0.8125 0
0.125 0.8125 0
0.15625 0.8125 0
0.125 0.84375 0
0.15625 0.84375 0
0.15625 0.8125 0
[...]
POINT_DATA 4096
SCALARS State_InstatPDEProblemContainer_0 double 1
LOOKUP_TABLE default
-0.00140803 -0.00140765 -0.00150635 -0.00150609 -0.00140765 -0.0014073 -0.00150609 -0.00150607 -0.00150635 -0.00150609 -0.00160419 -0.00160404 -0.00150609 -0.00150607 -0.00160404 -0.00160434 -0.0014073 -0.00140696 -0.00150607 -0.0015063 -0.00140696 -0.00140662 -0.0015063 -0.0015068 -0.00150607 -0.0015063 -0.00160434 -0.0016051 -0.0015063 -0.0015068 -0.0016051 -0.00160637 -0.00160419 -0.00160404 -0.00170113 -0.00170109 -0.00160404 -0.00160434 -0.00170109 -0.00170166 -0.00170113 -0.00170109 -0.00179683 -0.00179687 -0.00170109 -0.00170166 -0.00179687 -0.00179767 -0.00160434 -0.0016051 -0.00170166 -0.00170289 -0.0016051 -0.00160637 -0.00170289 -0.00170482 -0.00170166 -0.00170289 -0.00179767 -0.00179927 -0.00170289 -0.00170482 -0.00179927 -0.0018017 -0.00140662 -0.0014063 -0.0015068 -0.0015076 -0.0014063 -0.00140597 -0.0015076 -0.00150875 -0.0015068 -0.0015076 -0.00160637 -0.00160821 -0.0015076 -0.00150875 -0.00160821 -0.0016107 -0.00140597 -0.00140565 -0.00150875 -0.00151032 -0.00140565 -0.00140532 -0.00151032 -0.00151242 -0.00150875 -0.00151032 -0.0016107 -0.00161398 -0.00151032 -0.00151242 -0.00161398 -0.00161824 -0.00160637 -0.00160821 -0.00170482 -0.00170753 -0.00160821 -0.0016107 -0.00170753 -0.00171113 -0.00170482 -0.00170753 -0.0018017 -0.00180506 -0.00170753 -0.00171113 -0.00180506 -0.00180947 -0.0016107 -0.00161398 -0.00171113 -0.00171578 -0.00161398 -0.00161824 -0.00171578 -0.0017217 -0.00171113 -0.00171578 -0.00180947 -0.00181506 -0.00171578 -0.0017217 -0.00181506 -0.00182206 -0.00179683 -0.00179687 -0.00189099 -0.00189109 -0.00179687 -0.00179767 -0.00189109 -0.00189205 -0.00189099 -0.00189109 -0.00198335 -0.00198351 -0.00189109 -0.00189205 -0.00198351 -0.00198456 -0.00179767 -0.00179927 -0.00189205 -0.0018939 -0.00179927 -0.0018017 -0.0018939 -0.00189667 -0.00189205 -0.0018939 -0.00198456 -0.00198655 -0.0018939 -0.00189667 -0.00198655 -0.0019895 -0.00198335 -0.00198351 -0.00207377 -0.00207395 -0.00198351 -0.00198456 -0.00207395 -0.00207504 -0.00207377 -0.00207395 -0.00216214 -0.00216233 -0.00207395 -0.00207504 -0.00216233 -0.0021634 -0.00198456 -0.00198655 -0.00207504 -0.00207706 -0.00198655 -0.0019895 -0.00207706 -0.00208004 -0.00207504 -0.00207706 -0.0021634 -0.00216537 -0.00207706 -0.00208004 -0.00216537 -0.00216825 -0.0018017 -0.00180506 -0.00189667 -0.00190046 -0.00180506 -0.00180947 -0.00190046 -0.00190534 -0.00189667 -0.00190046 -0.0019895 -0.00199347 -0.00190046 -0.00190534 -0.00199347 -0.00199853 -0.00180947 -0.00181506 -0.00190534 -0.00191145 -0.00181506 -0.00182206 -0.00191145 -0.00191894 -0.00190534 -0.00191145 -0.00199853 -0.00200477 -0.00191145 -0.00191894 -0.00200477 -0.00201227 -0.0019895 -0.00199347 -0.00208004 -0.002084 -0.00199347 -0.00199853 -0.002084 -0.00208899 -0.00208004 -0.002084 -0.00216825 -0.00217204 -0.002084 -0.00208899 -0.00217204 -0.00217675 -0.00199853 -0.00200477 -0.00208899 -0.00209504 -0.00200477 -0.00201227 -0.00209504 -0.00210218 -0.00208899 -0.00209504 -0.00217675 -0.00218239 -0.00209504 -0.00210218 -0.00218239 -0.00218893 -0.00140532 -0.00140498 -0.00151242 -0.00151521 -0.00140498 -0.00140462 -0.00151521 -0.00151895 -0.00151242 -0.00151521 -0.00161824 -0.00162375 -0.00151521 -0.00151895 -0.00162375 -0.00163092 -0.00140462 -0.00140423 -0.00151895 -0.00152405 -0.00140423 -0.00140379 -0.00152405 -0.00153121 -0.00151895 -0.00152405 -0.00163092 -0.00164038 -0.00152405 -0.00153121 -0.00164038 -0.00165311 -0.00161824 -0.00162375 -0.0017217 -0.0017292 -0.00162375 -0.00163092 -0.0017292 -0.0017387 -0.0017217 -0.0017292 -0.00182206 -0.00183072 -0.0017292 -0.0017387 -0.00183072 -0.00184136 -0.00163092 -0.00164038 -0.0017387 -0.00175078 -0.00164038 -0.00165311 -0.00175078 -0.0017662 -0.0017387 -0.00175078 -0.00184136 -0.00185436 -0.00175078 -0.0017662 -0.00185436 -0.00187008 -0.00140379 -0.00140325 -0.00153121 -0.00154176 -0.00140325 -0.00140253 -0.00154176 -0.00155854 -0.00153121 -0.00154176 -0.00165311 -0.00167068 -0.00154176 -0.00155854 -0.00167068 -0.00169545 -0.00140253 -0.00140125 -0.00155854 -0.00158802 -0.00140125 -0.00139958 -0.00158802 -0.00165193 -0.00155854 -0.00158802 -0.00169545 -0.00173092 -0.00158802 -0.00165193 -0.00173092 -0.00176825 -0.00165311 -0.00167068 -0.0017662 -0.00178585 -0.00167068 -0.00169545 -0.00178585 -0.00181044 -0.0017662 -0.00178585 -0.00187008 -0.00188867 -0.00178585 -0.00181044 -0.00188867 -0.00190957 -0.00169545 -0.00173092 -0.00181044 -0.00183811 -0.00173092 -0.00176825 -0.00183811 -0.00186651 -0.00181044 -0.00183811 -0.00190957 -0.00193149 -0.00183811 -0.00186651 -0.00193149 -0.00195256 -0.00182206 -0.00183072 -0.00191894 -0.00192799 -0.00183072 -0.00184136 -0.00192799 -0.00193878 -0.00191894 -0.00192799 -0.00201227 -0.00202111 -0.00192799 -0.00193878 -0.00202111 -0.00203135 -0.00184136 -0.00185436 -0.00193878 -0.00195145 -0.00185436 -0.00187008 -0.00195145 -0.00196602 -0.00193878 -0.00195145 -0.00203135 -0.00204295 -0.00195145 -0.00196602 -0.00204295 -0.00205574 -0.00201227 -0.00202111 -0.00210218 -0.00211041 -0.00202111 -0.00203135 -0.00211041 -0.00211968 -0.00210218 -0.00211041 -0.00218893 -0.0021963 -0.00211041 -0.00211968 -0.0021963 -0.00220441 -0.00203135 -0.00204295 -0.00211968 -0.00212986 -0.00204295 -0.00205574 -0.00212986 -0.0021407 -0.00211968 -0.00212986 -0.00220441 -0.00221308 -0.00212986 -0.0021407 -0.00221308 -0.00222204 -0.00187008 -0.00188867 -0.00196602 -0.00198223 -0.00188867 -0.00190957 -0.00198223 -0.00199939 -0.00196602 -0.00198223 -0.00205574 -0.00206933 -0.00198223 -0.00199939 -0.00206933 -0.00208312 -0.00190957 -0.00193149 -0.00199939 -0.00201647 -0.00193149 -0.00195256 -0.00201647 -0.00203255 -0.00199939 -0.00201647 -0.00208312 -0.00209642 -0.00201647 -0.00203255 -0.00209642 -0.00210868 -0.00205574 -0.00206933 -0.0021407 -0.00215183 -0.00206933 -0.00208312 -0.00215183 -0.00216275 -0.0021407 -0.00215183 -0.00222204 -0.00223096 -0.00215183 -0.00216275 -0.00223096 -0.00223948 -0.00208312 -0.00209642 -0.00216275 -0.00217301 -0.00209642 -0.00210868 -0.00217301 -0.00218231 -0.00216275 -0.00217301 -0.00223948 -0.0022473 -0.00217301 -0.00218231 -0.0022473 -0.00225423 -0.00216214 -0.00216233 -0.00224842 -0.00224861 -0.00216233 -0.0021634 -0.00224861 -0.00224962 -0.00224842 -0.00224861 -0.00233264 -0.0023328 -0.00224861 -0.00224962 -0.0023328 -0.00233371 -0.0021634 -0.00216537 -0.00224962 -0.00225146 -0.00216537 -0.00216825 -0.00225146 -0.00225414 -0.00224962 -0.00225146 -0.00233371 -0.00233538 -0.00225146 -0.00225414 -0.00233538 -0.00233779 -0.00233264 -0.0023328 -0.00241483 -0.00241497 -0.0023328 -0.00233371 -0.00241497 -0.00241576 -0.00241483 -0.00241497 -0.00249512 -0.00249521 -0.00241497 -0.00241576 -0.00249521 -0.00249586 -0.00233371 -0.00233538 -0.00241576 -0.00241721 -0.00233538 -0.00233779 -0.00241721 -0.0024193 -0.00241576 -0.00241721 -0.00249586 -0.00249707 -0.00241721 -0.0024193 -0.00249707 -0.0024988 -0.00216825 -0.00217204 -0.00225414 -0.00225764 -0.00217204 -0.00217675 -0.00225764 -0.00226194 -0.00225414 -0.00225764 -0.00233779 -0.00234091 -0.00225764 -0.00226194 -0.00234091 -0.00234472 -0.00217675 -0.00218239 -0.00226194 -0.00226702 -0.00218239 -0.00218893 -0.00226702 -0.00227281 -0.00226194 -0.00226702 -0.00234472 -0.00234915 -0.00226702 -0.00227281 -0.00234915 -0.00235413 -0.00233779 -0.00234091 -0.0024193 -0.00242199 -0.00234091 -0.00234472 -0.00242199 -0.00242524 -0.0024193 -0.00242199 -0.0024988 -0.00250102 -0.00242199 -0.00242524 -0.00250102 -0.00250369 -0.00234472 -0.00234915 -0.00242524 -0.00242899 -0.00234915 -0.00235413 -0.00242899 -0.00243314 -0.00242524 -0.00242899 -0.00250369 -0.00250674 -0.00242899 -0.00243314 -0.00250674 -0.00251007 -0.00249512 -0.00249521 -0.00257362 -0.00257367 -0.00249521 -0.00249586 -0.00257367 -0.00257416 -0.00257362 -0.00257367 -0.0026505 -0.00265049 -0.00257367 -0.00257416 -0.00265049 -0.00265081 -0.00249586 -0.00249707 -0.00257416 -0.00257509 -0.00249707 -0.0024988 -0.00257509 -0.00257644 -0.00257416 -0.00257509 -0.00265081 -0.00265146 -0.00257509 -0.00257644 -0.00265146 -0.0026524 -0.0026505 -0.00265049 -0.00272593 -0.00272586 -0.00265049 -0.00265081 -0.00272586 -0.00272601 -0.00272593 -0.00272586 -0.0028 -0.0028 -0.00272586 -0.00272601 -0.0028 -0.0028 -0.00265081 -0.00265146 -0.00272601 -0.00272635 -0.00265146 -0.0026524 -0.00272635 -0.00272684 -0.00272601 -0.00272635 -0.0028 -0.0028 -0.00272635 -0.00272684 -0.0028 -0.0028 -0.0024988 -0.00250102 -0.00257644 -0.00257818 -0.00250102 -0.00250369 -0.00257818 -0.00258024 -0.00257644 -0.00257818 -0.0026524 -0.0026536 -0.00257818 -0.00258024 -0.0026536 -0.00265504 -0.00250369 -0.00250674 -0.00258024 -0.00258258 -0.00250674 -0.00251007 -0.00258258 -0.00258511 -0.00258024 -0.00258258 -0.00265504 -0.00265665 -0.00258258 -0.00258511 -0.00265665 -0.00265838 -0.0026524 -0.0026536 -0.00272684 -0.00272748 -0.0026536 -0.00265504 -0.00272748 -0.00272824 -0.00272684 -0.00272748 -0.0028 -0.0028 -0.00272748 -0.00272824 -0.0028 -0.0028 -0.00265504 -0.00265665 -0.00272824 -0.00272909 -0.00265665 -0.00265838 -0.00272909 -0.00272999 -0.00272824 -0.00272909 -0.0028 -0.0028 -0.00272909 -0.00272999 -0.0028 -0.0028 -0.00218893 -0.0021963 -0.00227281 -0.00227922 -0.0021963 -0.00220441 -0.00227922 -0.00228612 -0.00227281 -0.00227922 -0.00235413 -0.00235954 -0.00227922 -0.00228612 -0.00235954 -0.00236525 -0.00220441 -0.00221308 -0.00228612 -0.0022933 -0.00221308 -0.00222204 -0.0022933 -0.00230054 -0.00228612 -0.0022933 -0.00236525 -0.00237107 -0.0022933 -0.00230054 -0.00237107 -0.00237678 -0.00235413 -0.00235954 -0.00243314 -0.00243758 -0.00235954 -0.00236525 -0.00243758 -0.00244218 -0.00243314 -0.00243758 -0.00251007 -0.00251359 -0.00243758 -0.00244218 -0.00251359 -0.00251716 -0.00236525 -0.00237107 -0.00244218 -0.00244676 -0.00237107 -0.00237678 -0.00244676 -0.00245115 -0.00244218 -0.00244676 -0.00251716 -0.00252064 -0.00244676 -0.00245115 -0.00252064 -0.0025239 -0.00222204 -0.00223096 -0.00230054 -0.00230756 -0.00223096 -0.00223948 -0.00230756 -0.00231409 -0.00230054 -0.00230756 -0.00237678 -0.00238218 -0.00230756 -0.00231409 -0.00238218 -0.00238706 -0.00223948 -0.0022473 -0.00231409 -0.00231992 -0.0022473 -0.00225423 -0.00231992 -0.00232494 -0.00231409 -0.00231992 -0.00238706 -0.00239127 -0.00231992 -0.00232494 -0.00239127 -0.00239477 -0.00237678 -0.00238218 -0.00245115 -0.00245518 -0.00238218 -0.00238706 -0.00245518 -0.00245871 -0.00245115 -0.00245518 -0.0025239 -0.00252679 -0.00245518 -0.00245871 -0.00252679 -0.00252921 -0.00238706 -0.00239127 -0.00245871 -0.00246162 -0.00239127 -0.00239477 -0.00246162 -0.00246389 -0.00245871 -0.00246162 -0.00252921 -0.00253109 -0.00246162 -0.00246389 -0.00253109 -0.00253242 -0.00251007 -0.00251359 -0.00258511 -0.00258774 -0.00251359 -0.00251716 -0.00258774 -0.00259037 -0.00258511 -0.00258774 -0.00265838 -0.00266016 -0.00258774 -0.00259037 -0.00266016 -0.00266191 -0.00251716 -0.00252064 -0.00259037 -0.00259288 -0.00252064 -0.0025239 -0.00259288 -0.00259516 -0.00259037 -0.00259288 -0.00266191 -0.00266354 -0.00259288 -0.00259516 -0.00266354 -0.00266499 -0.00265838 -0.00266016 -0.00272999 -0.00273091 -0.00266016 -0.00266191 -0.00273091 -0.0027318 -0.00272999 -0.00273091 -0.0028 -0.0028 -0.00273091 -0.0027318 -0.0028 -0.0028 -0.00266191 -0.00266354 -0.0027318 -0.00273262 -0.00266354 -0.00266499 -0.00273262 -0.00273332 -0.0027318 -0.00273262 -0.0028 -0.0028 -0.00273262 -0.00273332 -0.0028 -0.0028 -0.0025239 -0.00252679 -0.00259516 -0.00259712 -0.00252679 -0.00252921 -0.00259712 -0.00259866 -0.00259516 -0.00259712 -0.00266499 -0.00266617 -0.00259712 -0.00259866 -0.00266617 -0.00266703 -0.00252921 -0.00253109 -0.00259866 -0.00259975 -0.00253109 -0.00253242 -0.00259975 -0.00260037 -0.00259866 -0.00259975 -0.00266703 -0.00266754 -0.00259975 -0.00260037 -0.00266754 -0.00266772 -0.00266499 -0.00266617 -0.00273332 -0.00273386 -0.00266617 -0.00266703 -0.00273386 -0.00273421 -0.00273332 -0.00273386 -0.0028 -0.0028 -0.00273386 -0.00273421 -0.0028 -0.0028 -0.00266703 -0.00266754 -0.00273421 -0.00273437 -0.00266754 -0.00266772 -0.00273437 -0.00273432 -0.00273421 -0.00273437 -0.0028 -0.0028 -0.00273437 -0.00273432 -0.0028 -0.0028 -0.00139958 -0.00161254 -0.00165193 -0.00170329 -0.00161254 -0.00173893 -0.00170329 -0.00177411 -0.00165193 -0.00170329 -0.00176825 -0.00180713 -0.00170329 -0.00177411 -0.00180713 -0.0018446 -0.00173893 -0.00182476 -0.00177411 -0.00184085 -0.00182476 -0.00188969 -0.00184085 -0.00189787 -0.00177411 -0.00184085 -0.0018446 -0.0018875 -0.00184085 -0.00189787 -0.0018875 -0.00193017 -0.00176825 -0.00180713 -0.00186651 -0.00189276 -0.00180713 -0.0018446 -0.00189276 -0.00191923 -0.00186651 -0.00189276 -0.00195256 -0.00197222 -0.00189276 -0.00191923 -0.00197222 -0.0019912 -0.0018446 -0.0018875 -0.00191923 -0.00194733 -0.0018875 -0.00193017 -0.00194733 -0.00197737 -0.00191923 -0.00194733 -0.0019912 -0.00201107 -0.00194733 -0.00197737 -0.00201107 -0.00203224 -0.00188969 -0.00194139 -0.00189787 -0.00194584 -0.00194139 -0.00198368 -0.00194584 -0.0019862 -0.00189787 -0.00194584 -0.00193017 -0.00196948 -0.00194584 -0.0019862 -0.00196948 -0.00200443 -0.00198368 -0.00201872 -0.0019862 -0.00202023 -0.00201872 -0.00204787 -0.00202023 -0.00204888 -0.0019862 -0.00202023 -0.00200443 -0.00203495 -0.00202023 -0.00204888 -0.00203495 -0.00206127 -0.00193017 -0.00196948 -0.00197737 -0.00200724 -0.00196948 -0.00200443 -0.00200724 -0.00203542 -0.00197737 -0.00200724 -0.00203224 -0.00205417 -0.00200724 -0.00203542 -0.00205417 -0.00207584 -0.00200443 -0.00203495 -0.00203542 -0.00206107 -0.00203495 -0.00206127 -0.00206107 -0.00208388 -0.00203542 -0.00206107 -0.00207584 -0.00209636 -0.00206107 -0.00208388 -0.00209636 -0.0021152 -0.00195256 -0.00197222 -0.00203255 -0.00204733 -0.00197222 -0.0019912 -0.00204733 -0.00206142 -0.00203255 -0.00204733 -0.00210868 -0.00211984 -0.00204733 -0.00206142 -0.00211984 -0.00213028 -0.0019912 -0.00201107 -0.00206142 -0.00207572 -0.00201107 -0.00203224 -0.00207572 -0.00209085 -0.00206142 -0.00207572 -0.00213028 -0.00214065 -0.00207572 -0.00209085 -0.00214065 -0.00215144 -0.00210868 -0.00211984 -0.00218231 -0.00219064 -0.00211984 -0.00213028 -0.00219064 -0.00219828 -0.00218231 -0.00219064 -0.00225423 -0.0022603 -0.00219064 -0.00219828 -0.0022603 -0.00226574 -0.00213028 -0.00214065 -0.00219828 -0.00220569 -0.00214065 -0.00215144 -0.00220569 -0.00221327 -0.00219828 -0.00220569 -0.00226574 -0.00227087 -0.00220569 -0.00221327 -0.00227087 -0.002276 -0.00203224 -0.00205417 -0.00209085 -0.00210673 -0.00205417 -0.00207584 -0.00210673 -0.00212289 -0.00209085 -0.00210673 -0.00215144 -0.00216281 -0.00210673 -0.00212289 -0.00216281 -0.00217456 -0.00207584 -0.00209636 -0.00212289 -0.0021387 -0.00209636 -0.0021152 -0.0021387 -0.00215363 -0.00212289 -0.0021387 -0.00217456 -0.00218635 -0.0021387 -0.00215363 -0.00218635 -0.00219776 -0.00215144 -0.00216281 -0.00221327 -0.00222123 -0.00216281 -0.00217456 -0.00222123 -0.00222954 -0.00221327 -0.00222123 -0.002276 -0.00228136 -0.00222123 -0.00222954 -0.00228136 -0.00228701 -0.00217456 -0.00218635 -0.00222954 -0.00223803 -0.00218635 -0.00219776 -0.00223803 -0.00224643 -0.00222954 -0.00223803 -0.00228701 -0.00229287 -0.00223803 -0.00224643 -0.00229287 -0.00229878 -0.00204787 -0.00207207 -0.00204888 -0.00207288 -0.00207207 -0.00209202 -0.00207288 -0.0020928 -0.00204888 -0.00207288 -0.00206127 -0.00208369 -0.00207288 -0.0020928 -0.00208369 -0.00210252 -0.00209202 -0.00210821 -0.0020928 -0.00210904 -0.00210821 -0.002121 -0.00210904 -0.00212194 -0.0020928 -0.00210904 -0.00210252 -0.00211803 -0.00210904 -0.00212194 -0.00211803 -0.00213042 -0.00206127 -0.00208369 -0.00208388 -0.00210375 -0.00208369 -0.00210252 -0.00210375 -0.00212072 -0.00208388 -0.00210375 -0.0021152 -0.00213201 -0.00210375 -0.00212072 -0.00213201 -0.00214664 -0.00210252 -0.00211803 -0.00212072 -0.00213486 -0.00211803 -0.00213042 -0.00213486 -0.00214628 -0.00212072 -0.00213486 -0.00214664 -0.00215902 -0.00213486 -0.00214628 -0.00215902 -0.00216911 -0.002121 -0.00213069 -0.00212194 -0.00213173 -0.00213069 -0.00213748 -0.00213173 -0.00213861 -0.00212194 -0.00213173 -0.00213042 -0.00213989 -0.00213173 -0.00213861 -0.00213989 -0.00214655 -0.00213748 -0.0021415 -0.00213861 -0.00214269 -0.0021415 -0.00214283 -0.00214269 -0.00214404 -0.00213861 -0.00214269 -0.00214655 -0.00215052 -0.00214269 -0.00214404 -0.00215052 -0.00215183 -0.00213042 -0.00213989 -0.00214628 -0.00215505 -0.00213989 -0.00214655 -0.00215505 -0.00216126 -0.00214628 -0.00215505 -0.00216911 -0.00217693 -0.00215505 -0.00216126 -0.00217693 -0.0021825 -0.00214655 -0.00215052 -0.00216126 -0.00216496 -0.00215052 -0.00215183 -0.00216496 -0.00216618 -0.00216126 -0.00216496 -0.0021825 -0.00218582 -0.00216496 -0.00216618 -0.00218582 -0.00218692 -0.0021152 -0.00213201 -0.00215363 -0.00216728 -0.00213201 -0.00214664 -0.00216728 -0.0021794 -0.00215363 -0.00216728 -0.00219776 -0.00220843 -0.00216728 -0.0021794 -0.00220843 -0.00221808 -0.00214664 -0.00215902 -0.0021794 -0.00218981 -0.00215902 -0.00216911 -0.00218981 -0.0021984 -0.0021794 -0.00218981 -0.00221808 -0.00222651 -0.00218981 -0.0021984 -0.00222651 -0.00223355 -0.00219776 -0.00220843 -0.00224643 -0.00225446 -0.00220843 -0.00221808 -0.00225446 -0.00226185 -0.00224643 -0.00225446 -0.00229878 -0.00230454 -0.00225446 -0.00226185 -0.00230454 -0.00230996 -0.00221808 -0.00222651 -0.00226185 -0.0022684 -0.00222651 -0.00223355 -0.0022684 -0.00227395 -0.00226185 -0.0022684 -0.00230996 -0.00231484 -0.0022684 -0.00227395 -0.00231484 -0.00231902 -0.00216911 -0.00217693 -0.0021984 -0.00220512 -0.00217693 -0.0021825 -0.00220512 -0.00220993 -0.0021984 -0.00220512 -0.00223355 -0.00223911 -0.00220512 -0.00220993 -0.00223911 -0.00224311 -0.0021825 -0.00218582 -0.00220993 -0.00221281 -0.00218582 -0.00218692 -0.00221281 -0.00221375 -0.00220993 -0.00221281 -0.00224311 -0.00224551 -0.00221281 -0.00221375 -0.00224551 -0.0022463 -0.00223355 -0.00223911 -0.00227395 -0.00227837 -0.00223911 -0.00224311 -0.00227837 -0.00228158 -0.00227395 -0.00227837 -0.00231902 -0.00232239 -0.00227837 -0.00228158 -0.00232239 -0.00232485 -0.00224311 -0.00224551 -0.00228158 -0.00228351 -0.00224551 -0.0022463 -0.00228351 -0.00228413 -0.00228158 -0.00228351 -0.00232485 -0.00232633 -0.00228351 -0.00228413 -0.00232633 -0.0023268 -0.00225423 -0.0022603 -0.00232494 -0.00232921 -0.0022603 -0.00226574 -0.00232921 -0.00233289 -0.00232494 -0.00232921 -0.00239477 -0.00239758 -0.00232921 -0.00233289 -0.00239758 -0.00239987 -0.00226574 -0.00227087 -0.00233289 -0.00233623 -0.00227087 -0.002276 -0.00233623 -0.00233948 -0.00233289 -0.00233623 -0.00239987 -0.00240181 -0.00233623 -0.00233948 -0.00240181 -0.00240363 -0.00239477 -0.00239758 -0.00246389 -0.00246557 -0.00239758 -0.00239987 -0.00246557 -0.00246677 -0.00246389 -0.00246557 -0.00253242 -0.00253323 -0.00246557 -0.00246677 -0.00253323 -0.00253363 -0.00239987 -0.00240181 -0.00246677 -0.00246765 -0.00240181 -0.00240363 -0.00246765 -0.00246839 -0.00246677 -0.00246765 -0.00253363 -0.00253375 -0.00246765 -0.00246839 -0.00253375 -0.00253372 -0.002276 -0.00228136 -0.00233948 -0.00234286 -0.00228136 -0.00228701 -0.00234286 -0.00234644 -0.00233948 -0.00234286 -0.00240363 -0.00240549 -0.00234286 -0.00234644 -0.00240549 -0.0024075 -0.00228701 -0.00229287 -0.00234644 -0.00235023 -0.00229287 -0.00229878 -0.00235023 -0.00235414 -0.00234644 -0.00235023 -0.0024075 -0.00240969 -0.00235023 -0.00235414 -0.00240969 -0.00241204 -0.00240363 -0.00240549 -0.00246839 -0.00246912 -0.00240549 -0.0024075 -0.00246912 -0.00246997 -0.00246839 -0.00246912 -0.00253372 -0.00253367 -0.00246912 -0.00246997 -0.00253367 -0.0025337 -0.0024075 -0.00240969 -0.00246997 -0.00247098 -0.00240969 -0.00241204 -0.00247098 -0.00247215 -0.00246997 -0.00247098 -0.0025337 -0.00253388 -0.00247098 -0.00247215 -0.00253388 -0.00253422 -0.00253242 -0.00253323 -0.00260037 -0.00260058 -0.00253323 -0.00253363 -0.00260058 -0.00260045 -0.00260037 -0.00260058 -0.00266772 -0.00266758 -0.00260058 -0.00260045 -0.00266758 -0.00266718 -0.00253363 -0.00253375 -0.00260045 -0.00260008 -0.00253375 -