# vtk DataFile Version 3.0
#This file was generated by the deal.II library on 2018/7/10 at 10:46:53
ASCII
DATASET UNSTRUCTURED_GRID

POINTS 4096 double
0 0.5 0
0.03125 0.5 0
0 0.53125 0
0.03125 0.53125 0
0.03125 0.5 0
0.0625 0.5 0
0.03125 0.53125 0
0.0625 0.53125 0
0 0.53125 0
0.03125 0.53125 0
0 0.5625 0
0.03125 0.5625 0
0.03125 0.53125 0
0.0625 0.53125 0
0.03125 0.5625 0
0.0625 0.5625 0
0.0625 0.5 0
0.09375 0.5 0
0.0625 0.53125 0
0.09375 0.53125 0
0.09375 0.5 0
0.125 0.5 0
0.09375 0.53125 0
0.125 0.53125 0
0.0625 0.53125 0
0.09375 0.53125 0
0.0625 0.5625 0
0.09375 0.5625 0
0.09375 0.53125 0
0.125 0.53125 0
0.09375 0.5625 0
0.125 0.5625 0
0 0.5625 0
0.03125 0.5625 0
0 0.59375 0
0.03125 0.59375 0
0.03125 0.5625 0
0.0625 0.5625 0
0.03125 0.59375 0
0.0625 0.59375 0
0 0.59375 0
0.03125 0.59375 0
0 0.625 0
0.03125 0.625 0
0.03125 0.59375 0
0.0625 0.59375 0
0.03125 0.625 0
0.0625 0.625 0
0.0625 0.5625 0
0.09375 0.5625 0
0.0625 0.59375 0
0.09375 0.59375 0
0.09375 0.5625 0
0.125 0.5625 0
0.09375 0.59375 0
0.125 0.59375 0
0.0625 0.59375 0
0.09375 0.59375 0
0.0625 0.625 0
0.09375 0.625 0
0.09375 0.59375 0
0.125 0.59375 0
0.09375 0.625 0
0.125 0.625 0
0.125 0.5 0
0.15625 0.5 0
0.125 0.53125 0
0.15625 0.53125 0
0.15625 0.5 0
0.1875 0.5 0
0.15625 0.53125 0
0.1875 0.53125 0
0.125 0.53125 0
0.15625 0.53125 0
0.125 0.5625 0
0.15625 0.5625 0
0.15625 0.53125 0
0.1875 0.53125 0
0.15625 0.5625 0
0.1875 0.5625 0
0.1875 0.5 0
0.21875 0.5 0
0.1875 0.53125 0
0.21875 0.53125 0
0.21875 0.5 0
0.25 0.5 0
0.21875 0.53125 0
0.25 0.53125 0
0.1875 0.53125 0
0.21875 0.53125 0
0.1875 0.5625 0
0.21875 0.5625 0
0.21875 0.53125 0
0.25 0.53125 0
0.21875 0.5625 0
0.25 0.5625 0
0.125 0.5625 0
0.15625 0.5625 0
0.125 0.59375 0
0.15625 0.59375 0
0.15625 0.5625 0
0.1875 0.5625 0
0.15625 0.59375 0
0.1875 0.59375 0
0.125 0.59375 0
0.15625 0.59375 0
0.125 0.625 0
0.15625 0.625 0
0.15625 0.59375 0
0.1875 0.59375 0
0.15625 0.625 0
0.1875 0.625 0
0.1875 0.5625 0
0.21875 0.5625 0
0.1875 0.59375 0
0.21875 0.59375 0
0.21875 0.5625 0
0.25 0.5625 0
0.21875 0.59375 0
0.25 0.59375 0
0.1875 0.59375 0
0.21875 0.59375 0
0.1875 0.625 0
0.21875 0.625 0
0.21875 0.59375 0
0.25 0.59375 0
0.21875 0.625 0
0.25 0.625 0
0 0.625 0
0.03125 0.625 0
0 0.65625 0
0.03125 0.65625 0
0.03125 0.625 0
0.0625 0.625 0
0.03125 0.65625 0
0.0625 0.65625 0
0 0.65625 0
0.03125 0.65625 0
0 0.6875 0
0.03125 0.6875 0
0.03125 0.65625 0
0.0625 0.65625 0
0.03125 0.6875 0
0.0625 0.6875 0
0.0625 0.625 0
0.09375 0.625 0
0.0625 0.65625 0
0.09375 0.65625 0
0.09375 0.625 0
0.125 0.625 0
0.09375 0.65625 0
0.125 0.65625 0
0.0625 0.65625 0
0.09375 0.65625 0
0.0625 0.6875 0
0.09375 0.6875 0
0.09375 0.65625 0
0.125 0.65625 0
0.09375 0.6875 0
0.125 0.6875 0
0 0.6875 0
0.03125 0.6875 0
0 0.71875 0
0.03125 0.71875 0
0.03125 0.6875 0
0.0625 0.6875 0
0.03125 0.71875 0
0.0625 0.71875 0
0 0.71875 0
0.03125 0.71875 0
0 0.75 0
0.03125 0.75 0
0.03125 0.71875 0
0.0625 0.71875 0
0.03125 0.75 0
0.0625 0.75 0
0.0625 0.6875 0
0.09375 0.6875 0
0.0625 0.71875 0
0.09375 0.71875 0
0.09375 0.6875 0
0.125 0.6875 0
0.09375 0.71875 0
0.125 0.71875 0
0.0625 0.71875 0
0.09375 0.71875 0
0.0625 0.75 0
0.09375 0.75 0
0.09375 0.71875 0
0.125 0.71875 0
0.09375 0.75 0
0.125 0.75 0
0.125 0.625 0
0.15625 0.625 0
0.125 0.65625 0
0.15625 0.65625 0
0.15625 0.625 0
0.1875 0.625 0
0.15625 0.65625 0
0.1875 0.65625 0
0.125 0.65625 0
0.15625 0.65625 0
0.125 0.6875 0
0.15625 0.6875 0
0.15625 0.65625 0
0.1875 0.65625 0
0.15625 0.6875 0
0.1875 0.6875 0
0.1875 0.625 0
0.21875 0.625 0
0.1875 0.65625 0
0.21875 0.65625 0
0.21875 0.625 0
0.25 0.625 0
0.21875 0.65625 0
0.25 0.65625 0
0.1875 0.65625 0
0.21875 0.65625 0
0.1875 0.6875 0
0.21875 0.6875 0
0.21875 0.65625 0
0.25 0.65625 0
0.21875 0.6875 0
0.25 0.6875 0
0.125 0.6875 0
0.15625 0.6875 0
0.125 0.71875 0
0.15625 0.71875 0
0.15625 0.6875 0
0.1875 0.6875 0
0.15625 0.71875 0
0.1875 0.71875 0
0.125 0.71875 0
0.15625 0.71875 0
0.125 0.75 0
0.15625 0.75 0
0.15625 0.71875 0
0.1875 0.71875 0
0.15625 0.75 0
0.1875 0.75 0
0.1875 0.6875 0
0.21875 0.6875 0
0.1875 0.71875 0
0.21875 0.71875 0
0.21875 0.6875 0
0.25 0.6875 0
0.21875 0.71875 0
0.25 0.71875 0
0.1875 0.71875 0
0.21875 0.71875 0
0.1875 0.75 0
0.21875 0.75 0
0.21875 0.71875 0
0.25 0.71875 0
0.21875 0.75 0
0.25 0.75 0
0.25 0.5 0
0.28125 0.5 0
0.25 0.53125 0
0.28125 0.53125 0
0.28125 0.5 0
0.3125 0.5 0
0.28125 0.53125 0
0.3125 0.53125 0
0.25 0.53125 0
0.28125 0.53125 0
0.25 0.5625 0
0.28125 0.5625 0
0.28125 0.53125 0
0.3125 0.53125 0
0.28125 0.5625 0
0.3125 0.5625 0
0.3125 0.5 0
0.34375 0.5 0
0.3125 0.53125 0
0.34375 0.53125 0
0.34375 0.5 0
0.375 0.5 0
0.34375 0.53125 0
0.375 0.53125 0
0.3125 0.53125 0
0.34375 0.53125 0
0.3125 0.5625 0
0.34375 0.5625 0
0.34375 0.53125 0
0.375 0.53125 0
0.34375 0.5625 0
0.375 0.5625 0
0.25 0.5625 0
0.28125 0.5625 0
0.25 0.59375 0
0.28125 0.59375 0
0.28125 0.5625 0
0.3125 0.5625 0
0.28125 0.59375 0
0.3125 0.59375 0
0.25 0.59375 0
0.28125 0.59375 0
0.25 0.625 0
0.28125 0.625 0
0.28125 0.59375 0
0.3125 0.59375 0
0.28125 0.625 0
0.3125 0.625 0
0.3125 0.5625 0
0.34375 0.5625 0
0.3125 0.59375 0
0.34375 0.59375 0
0.34375 0.5625 0
0.375 0.5625 0
0.34375 0.59375 0
0.375 0.59375 0
0.3125 0.59375 0
0.34375 0.59375 0
0.3125 0.625 0
0.34375 0.625 0
0.34375 0.59375 0
0.375 0.59375 0
0.34375 0.625 0
0.375 0.625 0
0.375 0.5 0
0.40625 0.5 0
0.375 0.53125 0
0.40625 0.53125 0
0.40625 0.5 0
0.4375 0.5 0
0.40625 0.53125 0
0.4375 0.53125 0
0.375 0.53125 0
0.40625 0.53125 0
0.375 0.5625 0
0.40625 0.5625 0
0.40625 0.53125 0
0.4375 0.53125 0
0.40625 0.5625 0
0.4375 0.5625 0
0.4375 0.5 0
0.46875 0.5 0
0.4375 0.53125 0
0.46875 0.53125 0
0.46875 0.5 0
0.5 0.5 0
0.46875 0.53125 0
0.5 0.53125 0
0.4375 0.53125 0
0.46875 0.53125 0
0.4375 0.5625 0
0.46875 0.5625 0
0.46875 0.53125 0
0.5 0.53125 0
0.46875 0.5625 0
0.5 0.5625 0
0.375 0.5625 0
0.40625 0.5625 0
0.375 0.59375 0
0.40625 0.59375 0
0.40625 0.5625 0
0.4375 0.5625 0
0.40625 0.59375 0
0.4375 0.59375 0
0.375 0.59375 0
0.40625 0.59375 0
0.375 0.625 0
0.40625 0.625 0
0.40625 0.59375 0
0.4375 0.59375 0
0.40625 0.625 0
0.4375 0.625 0
0.4375 0.5625 0
0.46875 0.5625 0
0.4375 0.59375 0
0.46875 0.59375 0
0.46875 0.5625 0
0.5 0.5625 0
0.46875 0.59375 0
0.5 0.59375 0
0.4375 0.59375 0
0.46875 0.59375 0
0.4375 0.625 0
0.46875 0.625 0
0.46875 0.59375 0
0.5 0.59375 0
0.46875 0.625 0
0.5 0.625 0
0.25 0.625 0
0.28125 0.625 0
0.25 0.65625 0
0.28125 0.65625 0
0.28125 0.625 0
0.3125 0.625 0
0.28125 0.65625 0
0.3125 0.65625 0
0.25 0.65625 0
0.28125 0.65625 0
0.25 0.6875 0
0.28125 0.6875 0
0.28125 0.65625 0
0.3125 0.65625 0
0.28125 0.6875 0
0.3125 0.6875 0
0.3125 0.625 0
0.34375 0.625 0
0.3125 0.65625 0
0.34375 0.65625 0
0.34375 0.625 0
0.375 0.625 0
0.34375 0.65625 0
0.375 0.65625 0
0.3125 0.65625 0
0.34375 0.65625 0
0.3125 0.6875 0
0.34375 0.6875 0
0.34375 0.65625 0
0.375 0.65625 0
0.34375 0.6875 0
0.375 0.6875 0
0.25 0.6875 0
0.28125 0.6875 0
0.25 0.71875 0
0.28125 0.71875 0
0.28125 0.6875 0
0.3125 0.6875 0
0.28125 0.71875 0
0.3125 0.71875 0
0.25 0.71875 0
0.28125 0.71875 0
0.25 0.75 0
0.28125 0.75 0
0.28125 0.71875 0
0.3125 0.71875 0
0.28125 0.75 0
0.3125 0.75 0
0.3125 0.6875 0
0.34375 0.6875 0
0.3125 0.71875 0
0.34375 0.71875 0
0.34375 0.6875 0
0.375 0.6875 0
0.34375 0.71875 0
0.375 0.71875 0
0.3125 0.71875 0
0.34375 0.71875 0
0.3125 0.75 0
0.34375 0.75 0
0.34375 0.71875 0
0.375 0.71875 0
0.34375 0.75 0
0.375 0.75 0
0.375 0.625 0
0.40625 0.625 0
0.375 0.65625 0
0.40625 0.65625 0
0.40625 0.625 0
0.4375 0.625 0
0.40625 0.65625 0
0.4375 0.65625 0
0.375 0.65625 0
0.40625 0.65625 0
0.375 0.6875 0
0.40625 0.6875 0
0.40625 0.65625 0
0.4375 0.65625 0
0.40625 0.6875 0
0.4375 0.6875 0
0.4375 0.625 0
0.46875 0.625 0
0.4375 0.65625 0
0.46875 0.65625 0
0.46875 0.625 0
0.5 0.625 0
0.46875 0.65625 0
0.5 0.65625 0
0.4375 0.65625 0
0.46875 0.65625 0
0.4375 0.6875 0
0.46875 0.6875 0
0.46875 0.65625 0
0.5 0.65625 0
0.46875 0.6875 0
0.5 0.6875 0
0.375 0.6875 0
0.40625 0.6875 0
0.375 0.71875 0
0.40625 0.71875 0
0.40625 0.6875 0
0.4375 0.6875 0
0.40625 0.71875 0
0.4375 0.71875 0
0.375 0.71875 0
0.40625 0.71875 0
0.375 0.75 0
0.40625 0.75 0
0.40625 0.71875 0
0.4375 0.71875 0
0.40625 0.75 0
0.4375 0.75 0
0.4375 0.6875 0
0.46875 0.6875 0
0.4375 0.71875 0
0.46875 0.71875 0
0.46875 0.6875 0
0.5 0.6875 0
0.46875 0.71875 0
0.5 0.71875 0
0.4375 0.71875 0
0.46875 0.71875 0
0.4375 0.75 0
0.46875 0.75 0
0.46875 0.71875 0
0.5 0.71875 0
0.46875 0.75 0
0.5 0.75 0
0 0.75 0
0.03125 0.75 0
0 0.78125 0
0.03125 0.78125 0
0.03125 0.75 0
0.0625 0.75 0
0.03125 0.78125 0
0.0625 0.78125 0
0 0.78125 0
0.03125 0.78125 0
0 0.8125 0
0.03125 0.8125 0
0.03125 0.78125 0
0.0625 0.78125 0
0.03125 0.8125 0
0.0625 0.8125 0
0.0625 0.75 0
0.09375 0.75 0
0.0625 0.78125 0
0.09375 0.78125 0
0.09375 0.75 0
0.125 0.75 0
0.09375 0.78125 0
0.125 0.78125 0
0.0625 0.78125 0
0.09375 0.78125 0
0.0625 0.8125 0
0.09375 0.8125 0
0.09375 0.78125 0
0.125 0.78125 0
0.09375 0.8125 0
0.125 0.8125 0
0 0.8125 0
0.03125 0.8125 0
0 0.84375 0
0.03125 0.84375 0
0.03125 0.8125 0
0.0625 0.8125 0
0.03125 0.84375 0
0.0625 0.84375 0
0 0.84375 0
0.03125 0.84375 0
0 0.875 0
0.03125 0.875 0
0.03125 0.84375 0
0.0625 0.84375 0
0.03125 0.875 0
0.0625 0.875 0
0.0625 0.8125 0
0.09375 0.8125 0
0.0625 0.84375 0
0.09375 0.84375 0
0.09375 0.8125 0
0.125 0.8125 0
0.09375 0.84375 0
0.125 0.84375 0
0.0625 0.84375 0
0.09375 0.84375 0
0.0625 0.875 0
0.09375 0.875 0
0.09375 0.84375 0
0.125 0.84375 0
0.09375 0.875 0
0.125 0.875 0
0.125 0.75 0
0.15625 0.75 0
0.125 0.78125 0
0.15625 0.78125 0
0.15625 0.75 0
0.1875 0.75 0
0.15625 0.78125 0
0.1875 0.78125 0
0.125 0.78125 0
0.15625 0.78125 0
0.125 0.8125 0
0.15625 0.8125 0
0.15625 0.78125 0
0.1875 0.78125 0
0.15625 0.8125 0
0.1875 0.8125 0
0.1875 0.75 0
0.21875 0.75 0
0.1875 0.78125 0
0.21875 0.78125 0
0.21875 0.75 0
0.25 0.75 0
0.21875 0.78125 0
0.25 0.78125 0
0.1875 0.78125 0
0.21875 0.78125 0
0.1875 0.8125 0
0.21875 0.8125 0
0.21875 0.78125 0
0.25 0.78125 0
0.21875 0.8125 0
0.25 0.8125 0
0.125 0.8125 0
0.15625 0.8125 0
0.125 0.84375 0
0.15625 0.84375 0
0.15625 0.8125 0
[...]
POINT_DATA 4096
SCALARS State_InstatPDEProblemContainer_0 double 1
LOOKUP_TABLE default
-0.000751447 -0.000751383 -0.000804003 -0.000803997 -0.000751383 -0.000751314 -0.000803997 -0.000804106 -0.000804003 -0.000803997 -0.00085634 -0.00085639 -0.000803997 -0.000804106 -0.00085639 -0.000856666 -0.000751314 -0.00075124 -0.000804106 -0.000804335 -0.00075124 -0.00075116 -0.000804335 -0.000804695 -0.000804106 -0.000804335 -0.000856666 -0.000857179 -0.000804335 -0.000804695 -0.000857179 -0.000857949 -0.00085634 -0.00085639 -0.000908247 -0.000908347 -0.00085639 -0.000856666 -0.000908347 -0.000908769 -0.000908247 -0.000908347 -0.000959533 -0.000959674 -0.000908347 -0.000908769 -0.000959674 -0.000960212 -0.000856666 -0.000857179 -0.000908769 -0.000909527 -0.000857179 -0.000857949 -0.000909527 -0.000910649 -0.000908769 -0.000909527 -0.000960212 -0.000961164 -0.000909527 -0.000910649 -0.000961164 -0.000962559 -0.00075116 -0.000751072 -0.000804695 -0.000805204 -0.000751072 -0.000750975 -0.000805204 -0.000805888 -0.000804695 -0.000805204 -0.000857949 -0.000859011 -0.000805204 -0.000805888 -0.000859011 -0.000860413 -0.000750975 -0.000750867 -0.000805888 -0.000806787 -0.000750867 -0.000750746 -0.000806787 -0.000807958 -0.000805888 -0.000806787 -0.000860413 -0.000862225 -0.000806787 -0.000807958 -0.000862225 -0.000864549 -0.000857949 -0.000859011 -0.000910649 -0.000912178 -0.000859011 -0.000860413 -0.000912178 -0.000914175 -0.000910649 -0.000912178 -0.000962559 -0.000964441 -0.000912178 -0.000914175 -0.000964441 -0.000966873 -0.000860413 -0.000862225 -0.000914175 -0.000916725 -0.000862225 -0.000864549 -0.000916725 -0.000919947 -0.000914175 -0.000916725 -0.000966873 -0.000969939 -0.000916725 -0.000919947 -0.000969939 -0.000973748 -0.000959533 -0.000959674 -0.00101004 -0.00101021 -0.000959674 -0.000960212 -0.00101021 -0.00101083 -0.00101004 -0.00101021 -0.00105963 -0.00105982 -0.00101021 -0.00101083 -0.00105982 -0.00106049 -0.000960212 -0.000961164 -0.00101083 -0.00101192 -0.000961164 -0.000962559 -0.00101192 -0.00101349 -0.00101083 -0.00101192 -0.00106049 -0.00106165 -0.00101192 -0.00101349 -0.00106165 -0.00106332 -0.00105963 -0.00105982 -0.00110822 -0.00110842 -0.00105982 -0.00106049 -0.00110842 -0.0011091 -0.00110822 -0.00110842 -0.00115575 -0.00115595 -0.00110842 -0.0011091 -0.00115595 -0.00115662 -0.00106049 -0.00106165 -0.0011091 -0.00111028 -0.00106165 -0.00106332 -0.00111028 -0.00111197 -0.0011091 -0.00111028 -0.00115662 -0.00115777 -0.00111028 -0.00111197 -0.00115777 -0.0011594 -0.000962559 -0.000964441 -0.00101349 -0.0010156 -0.000964441 -0.000966873 -0.0010156 -0.0010183 -0.00101349 -0.0010156 -0.00106332 -0.00106554 -0.0010156 -0.0010183 -0.00106554 -0.00106834 -0.000966873 -0.000969939 -0.0010183 -0.00102165 -0.000969939 -0.000973748 -0.00102165 -0.00102574 -0.0010183 -0.00102165 -0.00106834 -0.00107176 -0.00102165 -0.00102574 -0.00107176 -0.00107586 -0.00106332 -0.00106554 -0.00111197 -0.00111418 -0.00106554 -0.00106834 -0.00111418 -0.00111694 -0.00111197 -0.00111418 -0.0011594 -0.00116152 -0.00111418 -0.00111694 -0.00116152 -0.00116414 -0.00106834 -0.00107176 -0.00111694 -0.00112028 -0.00107176 -0.00107586 -0.00112028 -0.00112419 -0.00111694 -0.00112028 -0.00116414 -0.00116725 -0.00112028 -0.00112419 -0.00116725 -0.00117085 -0.000750746 -0.000750609 -0.000807958 -0.000809487 -0.000750609 -0.00075045 -0.000809487 -0.00081151 -0.000807958 -0.000809487 -0.000864549 -0.000867534 -0.000809487 -0.00081151 -0.000867534 -0.000871399 -0.00075045 -0.000750263 -0.00081151 -0.000814244 -0.000750263 -0.000750035 -0.000814244 -0.000818069 -0.00081151 -0.000814244 -0.000871399 -0.000876482 -0.000814244 -0.000818069 -0.000876482 -0.000883309 -0.000864549 -0.000867534 -0.000919947 -0.000924008 -0.000867534 -0.000871399 -0.000924008 -0.000929137 -0.000919947 -0.000924008 -0.000973748 -0.000978445 -0.000924008 -0.000929137 -0.000978445 -0.000984206 -0.000871399 -0.000876482 -0.000929137 -0.000935647 -0.000876482 -0.000883309 -0.000935647 -0.000943956 -0.000929137 -0.000935647 -0.000984206 -0.000991236 -0.000935647 -0.000943956 -0.000991236 -0.000999734 -0.000750035 -0.00074974 -0.000818069 -0.000823692 -0.00074974 -0.000749323 -0.000823692 -0.000832641 -0.000818069 -0.000823692 -0.000883309 -0.000892736 -0.000823692 -0.000832641 -0.000892736 -0.000906041 -0.000749323 -0.000748555 -0.000832641 -0.000848406 -0.000748555 -0.000747495 -0.000848406 -0.000882788 -0.000832641 -0.000848406 -0.000906041 -0.000925154 -0.000848406 -0.000882788 -0.000925154 -0.000945307 -0.000883309 -0.000892736 -0.000943956 -0.000954548 -0.000892736 -0.000906041 -0.000954548 -0.000967818 -0.000943956 -0.000954548 -0.000999734 -0.00100979 -0.000954548 -0.000967818 -0.00100979 -0.00102111 -0.000906041 -0.000925154 -0.000967818 -0.000982773 -0.000925154 -0.000945307 -0.000982773 -0.000998124 -0.000967818 -0.000982773 -0.00102111 -0.00103298 -0.000982773 -0.000998124 -0.00103298 -0.00104439 -0.000973748 -0.000978445 -0.00102574 -0.00103066 -0.000978445 -0.000984206 -0.00103066 -0.00103652 -0.00102574 -0.00103066 -0.00107586 -0.00108069 -0.00103066 -0.00103652 -0.00108069 -0.00108626 -0.000984206 -0.000991236 -0.00103652 -0.00104339 -0.000991236 -0.000999734 -0.00104339 -0.0010513 -0.00103652 -0.00104339 -0.00108626 -0.00109258 -0.00104339 -0.0010513 -0.00109258 -0.00109954 -0.00107586 -0.00108069 -0.00112419 -0.0011287 -0.00108069 -0.00108626 -0.0011287 -0.00113376 -0.00112419 -0.0011287 -0.00117085 -0.0011749 -0.0011287 -0.00113376 -0.0011749 -0.00117934 -0.00108626 -0.00109258 -0.00113376 -0.00113932 -0.00109258 -0.00109954 -0.00113932 -0.00114523 -0.00113376 -0.00113932 -0.00117934 -0.00118409 -0.00113932 -0.00114523 -0.00118409 -0.00118899 -0.000999734 -0.00100979 -0.0010513 -0.00106009 -0.00100979 -0.00102111 -0.00106009 -0.00106941 -0.0010513 -0.00106009 -0.00109954 -0.00110693 -0.00106009 -0.00106941 -0.00110693 -0.00111443 -0.00102111 -0.00103298 -0.00106941 -0.00107868 -0.00103298 -0.00104439 -0.00107868 -0.0010874 -0.00106941 -0.00107868 -0.00111443 -0.00112167 -0.00107868 -0.0010874 -0.00112167 -0.00112834 -0.00109954 -0.00110693 -0.00114523 -0.0011513 -0.00110693 -0.00111443 -0.0011513 -0.00115726 -0.00114523 -0.0011513 -0.00118899 -0.00119387 -0.0011513 -0.00115726 -0.00119387 -0.00119853 -0.00111443 -0.00112167 -0.00115726 -0.00116286 -0.00112167 -0.00112834 -0.00116286 -0.00116793 -0.00115726 -0.00116286 -0.00119853 -0.00120281 -0.00116286 -0.00116793 -0.00120281 -0.0012066 -0.00115575 -0.00115595 -0.0012022 -0.00120238 -0.00115595 -0.00115662 -0.00120238 -0.00120301 -0.0012022 -0.00120238 -0.00124756 -0.00124773 -0.00120238 -0.00120301 -0.00124773 -0.0012483 -0.00115662 -0.00115777 -0.00120301 -0.00120409 -0.00115777 -0.0011594 -0.00120409 -0.00120562 -0.00120301 -0.00120409 -0.0012483 -0.00124928 -0.00120409 -0.00120562 -0.00124928 -0.00125066 -0.00124756 -0.00124773 -0.00129187 -0.00129201 -0.00124773 -0.0012483 -0.00129201 -0.00129252 -0.00129187 -0.00129201 -0.00133517 -0.00133529 -0.00129201 -0.00129252 -0.00133529 -0.00133571 -0.0012483 -0.00124928 -0.00129252 -0.00129337 -0.00124928 -0.00125066 -0.00129337 -0.00129457 -0.00129252 -0.00129337 -0.00133571 -0.00133643 -0.00129337 -0.00129457 -0.00133643 -0.00133743 -0.0011594 -0.00116152 -0.00120562 -0.00120758 -0.00116152 -0.00116414 -0.00120758 -0.00120998 -0.00120562 -0.00120758 -0.00125066 -0.00125242 -0.00120758 -0.00120998 -0.00125242 -0.00125454 -0.00116414 -0.00116725 -0.00120998 -0.00121279 -0.00116725 -0.00117085 -0.00121279 -0.00121599 -0.00120998 -0.00121279 -0.00125454 -0.00125701 -0.00121279 -0.00121599 -0.00125701 -0.00125976 -0.00125066 -0.00125242 -0.00129457 -0.0012961 -0.00125242 -0.00125454 -0.0012961 -0.00129792 -0.00129457 -0.0012961 -0.00133743 -0.0013387 -0.0012961 -0.00129792 -0.0013387 -0.0013402 -0.00125454 -0.00125701 -0.00129792 -0.00130001 -0.00125701 -0.00125976 -0.00130001 -0.00130231 -0.00129792 -0.00130001 -0.0013402 -0.0013419 -0.00130001 -0.00130231 -0.0013419 -0.00134376 -0.00133517 -0.00133529 -0.00137754 -0.00137763 -0.00133529 -0.00133571 -0.00137763 -0.00137796 -0.00137754 -0.00137763 -0.00141907 -0.00141913 -0.00137763 -0.00137796 -0.00141913 -0.00141935 -0.00133571 -0.00133643 -0.00137796 -0.00137853 -0.00133643 -0.00133743 -0.00137853 -0.00137931 -0.00137796 -0.00137853 -0.00141935 -0.00141975 -0.00137853 -0.00137931 -0.00141975 -0.0014203 -0.00141907 -0.00141913 -0.00145985 -0.00145987 -0.00141913 -0.00141935 -0.00145987 -0.00145999 -0.00145985 -0.00145987 -0.0015 -0.0015 -0.00145987 -0.00145999 -0.0015 -0.0015 -0.00141935 -0.00141975 -0.00145999 -0.0014602 -0.00141975 -0.0014203 -0.0014602 -0.00146049 -0.00145999 -0.0014602 -0.0015 -0.0015 -0.0014602 -0.00146049 -0.0015 -0.0015 -0.00133743 -0.0013387 -0.00137931 -0.0013803 -0.0013387 -0.0013402 -0.0013803 -0.00138146 -0.00137931 -0.0013803 -0.0014203 -0.00142099 -0.0013803 -0.00138146 -0.00142099 -0.0014218 -0.0013402 -0.0013419 -0.00138146 -0.00138277 -0.0013419 -0.00134376 -0.00138277 -0.00138418 -0.00138146 -0.00138277 -0.0014218 -0.00142271 -0.00138277 -0.00138418 -0.00142271 -0.00142367 -0.0014203 -0.00142099 -0.00146049 -0.00146086 -0.00142099 -0.0014218 -0.00146086 -0.00146129 -0.00146049 -0.00146086 -0.0015 -0.0015 -0.00146086 -0.00146129 -0.0015 -0.0015 -0.0014218 -0.00142271 -0.00146129 -0.00146176 -0.00142271 -0.00142367 -0.00146176 -0.00146227 -0.00146129 -0.00146176 -0.0015 -0.0015 -0.00146176 -0.00146227 -0.0015 -0.0015 -0.00117085 -0.0011749 -0.00121599 -0.00121952 -0.0011749 -0.00117934 -0.00121952 -0.00122331 -0.00121599 -0.00121952 -0.00125976 -0.00126275 -0.00121952 -0.00122331 -0.00126275 -0.0012659 -0.00117934 -0.00118409 -0.00122331 -0.00122725 -0.00118409 -0.00118899 -0.00122725 -0.00123123 -0.00122331 -0.00122725 -0.0012659 -0.0012691 -0.00122725 -0.00123123 -0.0012691 -0.00127225 -0.00125976 -0.00126275 -0.00130231 -0.00130477 -0.00126275 -0.0012659 -0.00130477 -0.00130731 -0.00130231 -0.00130477 -0.00134376 -0.00134571 -0.00130477 -0.00130731 -0.00134571 -0.00134769 -0.0012659 -0.0012691 -0.00130731 -0.00130985 -0.0012691 -0.00127225 -0.00130985 -0.00131227 -0.00130731 -0.00130985 -0.00134769 -0.00134962 -0.00130985 -0.00131227 -0.00134962 -0.00135142 -0.00118899 -0.00119387 -0.00123123 -0.00123508 -0.00119387 -0.00119853 -0.00123508 -0.00123866 -0.00123123 -0.00123508 -0.00127225 -0.00127522 -0.00123508 -0.00123866 -0.00127522 -0.00127791 -0.00119853 -0.00120281 -0.00123866 -0.00124186 -0.00120281 -0.0012066 -0.00124186 -0.00124462 -0.00123866 -0.00124186 -0.00127791 -0.00128023 -0.00124186 -0.00124462 -0.00128023 -0.00128216 -0.00127225 -0.00127522 -0.00131227 -0.0013145 -0.00127522 -0.00127791 -0.0013145 -0.00131645 -0.00131227 -0.0013145 -0.00135142 -0.00135302 -0.0013145 -0.00131645 -0.00135302 -0.00135437 -0.00127791 -0.00128023 -0.00131645 -0.00131806 -0.00128023 -0.00128216 -0.00131806 -0.00131933 -0.00131645 -0.00131806 -0.00135437 -0.00135542 -0.00131806 -0.00131933 -0.00135542 -0.00135617 -0.00134376 -0.00134571 -0.00138418 -0.00138565 -0.00134571 -0.00134769 -0.00138565 -0.00138711 -0.00138418 -0.00138565 -0.00142367 -0.00142466 -0.00138565 -0.00138711 -0.00142466 -0.00142563 -0.00134769 -0.00134962 -0.00138711 -0.0013885 -0.00134962 -0.00135142 -0.0013885 -0.00138977 -0.00138711 -0.0013885 -0.00142563 -0.00142654 -0.0013885 -0.00138977 -0.00142654 -0.00142735 -0.00142367 -0.00142466 -0.00146227 -0.00146278 -0.00142466 -0.00142563 -0.00146278 -0.00146327 -0.00146227 -0.00146278 -0.0015 -0.0015 -0.00146278 -0.00146327 -0.0015 -0.0015 -0.00142563 -0.00142654 -0.00146327 -0.00146373 -0.00142654 -0.00142735 -0.00146373 -0.00146412 -0.00146327 -0.00146373 -0.0015 -0.0015 -0.00146373 -0.00146412 -0.0015 -0.0015 -0.00135142 -0.00135302 -0.00138977 -0.00139086 -0.00135302 -0.00135437 -0.00139086 -0.00139172 -0.00138977 -0.00139086 -0.00142735 -0.00142801 -0.00139086 -0.00139172 -0.00142801 -0.00142849 -0.00135437 -0.00135542 -0.00139172 -0.00139234 -0.00135542 -0.00135617 -0.00139234 -0.0013927 -0.00139172 -0.00139234 -0.00142849 -0.00142879 -0.00139234 -0.0013927 -0.00142879 -0.0014289 -0.00142735 -0.00142801 -0.00146412 -0.00146442 -0.00142801 -0.00142849 -0.00146442 -0.00146462 -0.00146412 -0.00146442 -0.0015 -0.0015 -0.00146442 -0.00146462 -0.0015 -0.0015 -0.00142849 -0.00142879 -0.00146462 -0.00146472 -0.00142879 -0.0014289 -0.00146472 -0.0014647 -0.00146462 -0.00146472 -0.0015 -0.0015 -0.00146472 -0.0014647 -0.0015 -0.0015 -0.000747495 -0.000861828 -0.000882788 -0.000910472 -0.000861828 -0.000929709 -0.000910472 -0.00094857 -0.000882788 -0.000910472 -0.000945307 -0.000966274 -0.000910472 -0.00094857 -0.000966274 -0.000986454 -0.000929709 -0.000975847 -0.00094857 -0.000984475 -0.000975847 -0.00101077 -0.000984475 -0.00101516 -0.00094857 -0.000984475 -0.000986454 -0.00100955 -0.000984475 -0.00101516 -0.00100955 -0.00103253 -0.000945307 -0.000966274 -0.000998124 -0.00101231 -0.000966274 -0.000986454 -0.00101231 -0.00102658 -0.000998124 -0.00101231 -0.00104439 -0.00105503 -0.00101231 -0.00102658 -0.00105503 -0.00106528 -0.000986454 -0.00100955 -0.00102658 -0.00104172 -0.00100955 -0.00103253 -0.00104172 -0.00105791 -0.00102658 -0.00104172 -0.00106528 -0.00107601 -0.00104172 -0.00105791 -0.00107601 -0.00108742 -0.00101077 -0.0010386 -0.00101516 -0.00104098 -0.0010386 -0.00106137 -0.00104098 -0.00106271 -0.00101516 -0.00104098 -0.00103253 -0.00105369 -0.00104098 -0.00106271 -0.00105369 -0.00107251 -0.00106137 -0.00108023 -0.00106271 -0.00108104 -0.00108023 -0.00109593 -0.00108104 -0.00109647 -0.00106271 -0.00108104 -0.00107251 -0.00108895 -0.00108104 -0.00109647 -0.00108895 -0.00110313 -0.00103253 -0.00105369 -0.00105791 -0.001074 -0.00105369 -0.00107251 -0.001074 -0.00108918 -0.00105791 -0.001074 -0.00108742 -0.00109924 -0.001074 -0.00108918 -0.00109924 -0.00111092 -0.00107251 -0.00108895 -0.00108918 -0.001103 -0.00108895 -0.00110313 -0.001103 -0.00111529 -0.00108918 -0.001103 -0.00111092 -0.00112198 -0.001103 -0.00111529 -0.00112198 -0.00113214 -0.00104439 -0.00105503 -0.0010874 -0.00109541 -0.00105503 -0.00106528 -0.00109541 -0.00110304 -0.0010874 -0.00109541 -0.00112834 -0.0011344 -0.00109541 -0.00110304 -0.0011344 -0.00114007 -0.00106528 -0.00107601 -0.00110304 -0.00111077 -0.00107601 -0.00108742 -0.00111077 -0.00111894 -0.00110304 -0.00111077 -0.00114007 -0.00114568 -0.00111077 -0.00111894 -0.00114568 -0.00115152 -0.00112834 -0.0011344 -0.00116793 -0.00117246 -0.0011344 -0.00114007 -0.00117246 -0.00117662 -0.00116793 -0.00117246 -0.0012066 -0.00120992 -0.00117246 -0.00117662 -0.00120992 -0.00121289 -0.00114007 -0.00114568 -0.00117662 -0.00118065 -0.00114568 -0.00115152 -0.00118065 -0.00118476 -0.00117662 -0.00118065 -0.00121289 -0.00121569 -0.00118065 -0.00118476 -0.00121569 -0.00121849 -0.00108742 -0.00109924 -0.00111894 -0.00112751 -0.00109924 -0.00111092 -0.00112751 -0.00113623 -0.00111894 -0.00112751 -0.00115152 -0.00115766 -0.00112751 -0.00113623 -0.00115766 -0.00116401 -0.00111092 -0.00112198 -0.00113623 -0.00114475 -0.00112198 -0.00113214 -0.00114475 -0.0011528 -0.00113623 -0.00114475 -0.00116401 -0.00117037 -0.00114475 -0.0011528 -0.00117037 -0.00117653 -0.00115152 -0.00115766 -0.00118476 -0.00118907 -0.00115766 -0.00116401 -0.00118907 -0.00119357 -0.00118476 -0.00118907 -0.00121849 -0.0012214 -0.00118907 -0.00119357 -0.0012214 -0.00122446 -0.00116401 -0.00117037 -0.00119357 -0.00119816 -0.00117037 -0.00117653 -0.00119816 -0.0012027 -0.00119357 -0.00119816 -0.00122446 -0.00122763 -0.00119816 -0.0012027 -0.00122763 -0.00123083 -0.00109593 -0.00110898 -0.00109647 -0.0011094 -0.00110898 -0.00111973 -0.0011094 -0.00112013 -0.00109647 -0.0011094 -0.00110313 -0.00111521 -0.0011094 -0.00112013 -0.00111521 -0.00112536 -0.00111973 -0.00112845 -0.00112013 -0.00112889 -0.00112845 -0.00113535 -0.00112889 -0.00113584 -0.00112013 -0.00112889 -0.00112536 -0.00113371 -0.00112889 -0.00113584 -0.00113371 -0.0011404 -0.00110313 -0.00111521 -0.00111529 -0.001126 -0.00111521 -0.00112536 -0.001126 -0.00113514 -0.00111529 -0.001126 -0.00113214 -0.0011412 -0.001126 -0.00113514 -0.0011412 -0.00114909 -0.00112536 -0.00113371 -0.00113514 -0.00114277 -0.00113371 -0.0011404 -0.00114277 -0.00114892 -0.00113514 -0.00114277 -0.00114909 -0.00115576 -0.00114277 -0.00114892 -0.00115576 -0.0011612 -0.00113535 -0.00114058 -0.00113584 -0.00114112 -0.00114058 -0.00114424 -0.00114112 -0.00114483 -0.00113584 -0.00114112 -0.0011404 -0.0011455 -0.00114112 -0.00114483 -0.0011455 -0.0011491 -0.00114424 -0.00114641 -0.00114483 -0.00114703 -0.00114641 -0.00114712 -0.00114703 -0.00114776 -0.00114483 -0.00114703 -0.0011491 -0.00115123 -0.00114703 -0.00114776 -0.00115123 -0.00115194 -0.0011404 -0.0011455 -0.00114892 -0.00115365 -0.0011455 -0.0011491 -0.00115365 -0.001157 -0.00114892 -0.00115365 -0.0011612 -0.00116542 -0.00115365 -0.001157 -0.00116542 -0.00116843 -0.0011491 -0.00115123 -0.001157 -0.001159 -0.00115123 -0.00115194 -0.001159 -0.00115966 -0.001157 -0.001159 -0.00116843 -0.00117022 -0.001159 -0.00115966 -0.00117022 -0.00117082 -0.00113214 -0.0011412 -0.0011528 -0.00116017 -0.0011412 -0.00114909 -0.00116017 -0.0011667 -0.0011528 -0.00116017 -0.00117653 -0.00118229 -0.00116017 -0.0011667 -0.00118229 -0.0011875 -0.00114909 -0.00115576 -0.0011667 -0.00117232 -0.00115576 -0.0011612 -0.00117232 -0.00117695 -0.0011667 -0.00117232 -0.0011875 -0.00119205 -0.00117232 -0.00117695 -0.00119205 -0.00119586 -0.00117653 -0.00118229 -0.0012027 -0.00120704 -0.00118229 -0.0011875 -0.00120704 -0.00121103 -0.0012027 -0.00120704 -0.00123083 -0.00123396 -0.00120704 -0.00121103 -0.00123396 -0.00123689 -0.0011875 -0.00119205 -0.00121103 -0.00121458 -0.00119205 -0.00119586 -0.00121458 -0.00121758 -0.00121103 -0.00121458 -0.00123689 -0.00123953 -0.00121458 -0.00121758 -0.00123953 -0.0012418 -0.0011612 -0.00116542 -0.00117695 -0.00118058 -0.00116542 -0.00116843 -0.00118058 -0.00118318 -0.00117695 -0.00118058 -0.00119586 -0.00119886 -0.00118058 -0.00118318 -0.00119886 -0.00120103 -0.00116843 -0.00117022 -0.00118318 -0.00118474 -0.00117022 -0.00117082 -0.00118474 -0.00118526 -0.00118318 -0.00118474 -0.00120103 -0.00120233 -0.00118474 -0.00118526 -0.00120233 -0.00120277 -0.00119586 -0.00119886 -0.00121758 -0.00121997 -0.00119886 -0.00120103 -0.00121997 -0.00122171 -0.00121758 -0.00121997 -0.0012418 -0.00124364 -0.00121997 -0.00122171 -0.00124364 -0.00124498 -0.00120103 -0.00120233 -0.00122171 -0.00122277 -0.00120233 -0.00120277 -0.00122277 -0.00122312 -0.00122171 -0.00122277 -0.00124498 -0.00124579 -0.00122277 -0.00122312 -0.00124579 -0.00124606 -0.0012066 -0.00120992 -0.00124462 -0.00124697 -0.00120992 -0.00121289 -0.00124697 -0.00124899 -0.00124462 -0.00124697 -0.00128216 -0.00128372 -0.00124697 -0.00124899 -0.00128372 -0.00128499 -0.00121289 -0.00121569 -0.00124899 -0.00125082 -0.00121569 -0.00121849 -0.00125082 -0.0012526 -0.00124899 -0.00125082 -0.00128499 -0.00128607 -0.00125082 -0.0012526 -0.00128607 -0.00128708 -0.00128216 -0.00128372 -0.00131933 -0.00132027 -0.00128372 -0.00128499 -0.00132027 -0.00132095 -0.00131933 -0.00132027 -0.00135617 -0.00135664 -0.00132027 -0.00132095 -0.00135664 -0.00135688 -0.00128499 -0.00128607 -0.00132095 -0.00132145 -0.00128607 -0.00128708 -0.00132145 -0.00132187 -0.00132095 -0.00132145 -0.00135688 -0.00135697 -0.00132145 -0.00132187 -0.00135697 -0.00135697 -0.00121849 -0.0012214 -0.0012526 -0.00125445 -0.0012214 -0.00122446 -0.00125445 -0.0012564 -0.0012526 -0.00125445 -0.00128708 -0.0012881 -0.00125445 -0.0012564 -0.0012881 -0.00128921 -0.00122446 -0.00122763 -0.0012564 -0.00125846 -0.00122763 -0.00123083 -0.00125846 -0.00126058 -0.0012564 -0.00125846 -0.00128921 -0.00129041 -0.00125846 -0.00126058 -0.00129041 -0.00129169 -0.00128708 -0.0012881 -0.00132187 -0.00132229 -0.0012881 -0.00128921 -0.00132229 -0.00132277 -0.00132187 -0.00132229 -0.00135697 -0.00135696 -0.00132229 -0.00132277 -0.00135696 -0.001357 -0.00128921 -0.00129041 -0.00132277 -0.00132333 -0.00129041 -0.00129169 -0.00132333 -0.00132398 -0.00132277 -0.00132333 -0.001357 -0.00135711 -0.00132333 -0.00132398 -0.00135711 -0.0013