# vtk DataFile Version 3.0
#This file was generated by the deal.II library on 2018/7/10 at 10:47:02
ASCII
DATASET UNSTRUCTURED_GRID

POINTS 4096 double
0 0.5 0
0.03125 0.5 0
0 0.53125 0
0.03125 0.53125 0
0.03125 0.5 0
0.0625 0.5 0
0.03125 0.53125 0
0.0625 0.53125 0
0 0.53125 0
0.03125 0.53125 0
0 0.5625 0
0.03125 0.5625 0
0.03125 0.53125 0
0.0625 0.53125 0
0.03125 0.5625 0
0.0625 0.5625 0
0.0625 0.5 0
0.09375 0.5 0
0.0625 0.53125 0
0.09375 0.53125 0
0.09375 0.5 0
0.125 0.5 0
0.09375 0.53125 0
0.125 0.53125 0
0.0625 0.53125 0
0.09375 0.53125 0
0.0625 0.5625 0
0.09375 0.5625 0
0.09375 0.53125 0
0.125 0.53125 0
0.09375 0.5625 0
0.125 0.5625 0
0 0.5625 0
0.03125 0.5625 0
0 0.59375 0
0.03125 0.59375 0
0.03125 0.5625 0
0.0625 0.5625 0
0.03125 0.59375 0
0.0625 0.59375 0
0 0.59375 0
0.03125 0.59375 0
0 0.625 0
0.03125 0.625 0
0.03125 0.59375 0
0.0625 0.59375 0
0.03125 0.625 0
0.0625 0.625 0
0.0625 0.5625 0
0.09375 0.5625 0
0.0625 0.59375 0
0.09375 0.59375 0
0.09375 0.5625 0
0.125 0.5625 0
0.09375 0.59375 0
0.125 0.59375 0
0.0625 0.59375 0
0.09375 0.59375 0
0.0625 0.625 0
0.09375 0.625 0
0.09375 0.59375 0
0.125 0.59375 0
0.09375 0.625 0
0.125 0.625 0
0.125 0.5 0
0.15625 0.5 0
0.125 0.53125 0
0.15625 0.53125 0
0.15625 0.5 0
0.1875 0.5 0
0.15625 0.53125 0
0.1875 0.53125 0
0.125 0.53125 0
0.15625 0.53125 0
0.125 0.5625 0
0.15625 0.5625 0
0.15625 0.53125 0
0.1875 0.53125 0
0.15625 0.5625 0
0.1875 0.5625 0
0.1875 0.5 0
0.21875 0.5 0
0.1875 0.53125 0
0.21875 0.53125 0
0.21875 0.5 0
0.25 0.5 0
0.21875 0.53125 0
0.25 0.53125 0
0.1875 0.53125 0
0.21875 0.53125 0
0.1875 0.5625 0
0.21875 0.5625 0
0.21875 0.53125 0
0.25 0.53125 0
0.21875 0.5625 0
0.25 0.5625 0
0.125 0.5625 0
0.15625 0.5625 0
0.125 0.59375 0
0.15625 0.59375 0
0.15625 0.5625 0
0.1875 0.5625 0
0.15625 0.59375 0
0.1875 0.59375 0
0.125 0.59375 0
0.15625 0.59375 0
0.125 0.625 0
0.15625 0.625 0
0.15625 0.59375 0
0.1875 0.59375 0
0.15625 0.625 0
0.1875 0.625 0
0.1875 0.5625 0
0.21875 0.5625 0
0.1875 0.59375 0
0.21875 0.59375 0
0.21875 0.5625 0
0.25 0.5625 0
0.21875 0.59375 0
0.25 0.59375 0
0.1875 0.59375 0
0.21875 0.59375 0
0.1875 0.625 0
0.21875 0.625 0
0.21875 0.59375 0
0.25 0.59375 0
0.21875 0.625 0
0.25 0.625 0
0 0.625 0
0.03125 0.625 0
0 0.65625 0
0.03125 0.65625 0
0.03125 0.625 0
0.0625 0.625 0
0.03125 0.65625 0
0.0625 0.65625 0
0 0.65625 0
0.03125 0.65625 0
0 0.6875 0
0.03125 0.6875 0
0.03125 0.65625 0
0.0625 0.65625 0
0.03125 0.6875 0
0.0625 0.6875 0
0.0625 0.625 0
0.09375 0.625 0
0.0625 0.65625 0
0.09375 0.65625 0
0.09375 0.625 0
0.125 0.625 0
0.09375 0.65625 0
0.125 0.65625 0
0.0625 0.65625 0
0.09375 0.65625 0
0.0625 0.6875 0
0.09375 0.6875 0
0.09375 0.65625 0
0.125 0.65625 0
0.09375 0.6875 0
0.125 0.6875 0
0 0.6875 0
0.03125 0.6875 0
0 0.71875 0
0.03125 0.71875 0
0.03125 0.6875 0
0.0625 0.6875 0
0.03125 0.71875 0
0.0625 0.71875 0
0 0.71875 0
0.03125 0.71875 0
0 0.75 0
0.03125 0.75 0
0.03125 0.71875 0
0.0625 0.71875 0
0.03125 0.75 0
0.0625 0.75 0
0.0625 0.6875 0
0.09375 0.6875 0
0.0625 0.71875 0
0.09375 0.71875 0
0.09375 0.6875 0
0.125 0.6875 0
0.09375 0.71875 0
0.125 0.71875 0
0.0625 0.71875 0
0.09375 0.71875 0
0.0625 0.75 0
0.09375 0.75 0
0.09375 0.71875 0
0.125 0.71875 0
0.09375 0.75 0
0.125 0.75 0
0.125 0.625 0
0.15625 0.625 0
0.125 0.65625 0
0.15625 0.65625 0
0.15625 0.625 0
0.1875 0.625 0
0.15625 0.65625 0
0.1875 0.65625 0
0.125 0.65625 0
0.15625 0.65625 0
0.125 0.6875 0
0.15625 0.6875 0
0.15625 0.65625 0
0.1875 0.65625 0
0.15625 0.6875 0
0.1875 0.6875 0
0.1875 0.625 0
0.21875 0.625 0
0.1875 0.65625 0
0.21875 0.65625 0
0.21875 0.625 0
0.25 0.625 0
0.21875 0.65625 0
0.25 0.65625 0
0.1875 0.65625 0
0.21875 0.65625 0
0.1875 0.6875 0
0.21875 0.6875 0
0.21875 0.65625 0
0.25 0.65625 0
0.21875 0.6875 0
0.25 0.6875 0
0.125 0.6875 0
0.15625 0.6875 0
0.125 0.71875 0
0.15625 0.71875 0
0.15625 0.6875 0
0.1875 0.6875 0
0.15625 0.71875 0
0.1875 0.71875 0
0.125 0.71875 0
0.15625 0.71875 0
0.125 0.75 0
0.15625 0.75 0
0.15625 0.71875 0
0.1875 0.71875 0
0.15625 0.75 0
0.1875 0.75 0
0.1875 0.6875 0
0.21875 0.6875 0
0.1875 0.71875 0
0.21875 0.71875 0
0.21875 0.6875 0
0.25 0.6875 0
0.21875 0.71875 0
0.25 0.71875 0
0.1875 0.71875 0
0.21875 0.71875 0
0.1875 0.75 0
0.21875 0.75 0
0.21875 0.71875 0
0.25 0.71875 0
0.21875 0.75 0
0.25 0.75 0
0.25 0.5 0
0.28125 0.5 0
0.25 0.53125 0
0.28125 0.53125 0
0.28125 0.5 0
0.3125 0.5 0
0.28125 0.53125 0
0.3125 0.53125 0
0.25 0.53125 0
0.28125 0.53125 0
0.25 0.5625 0
0.28125 0.5625 0
0.28125 0.53125 0
0.3125 0.53125 0
0.28125 0.5625 0
0.3125 0.5625 0
0.3125 0.5 0
0.34375 0.5 0
0.3125 0.53125 0
0.34375 0.53125 0
0.34375 0.5 0
0.375 0.5 0
0.34375 0.53125 0
0.375 0.53125 0
0.3125 0.53125 0
0.34375 0.53125 0
0.3125 0.5625 0
0.34375 0.5625 0
0.34375 0.53125 0
0.375 0.53125 0
0.34375 0.5625 0
0.375 0.5625 0
0.25 0.5625 0
0.28125 0.5625 0
0.25 0.59375 0
0.28125 0.59375 0
0.28125 0.5625 0
0.3125 0.5625 0
0.28125 0.59375 0
0.3125 0.59375 0
0.25 0.59375 0
0.28125 0.59375 0
0.25 0.625 0
0.28125 0.625 0
0.28125 0.59375 0
0.3125 0.59375 0
0.28125 0.625 0
0.3125 0.625 0
0.3125 0.5625 0
0.34375 0.5625 0
0.3125 0.59375 0
0.34375 0.59375 0
0.34375 0.5625 0
0.375 0.5625 0
0.34375 0.59375 0
0.375 0.59375 0
0.3125 0.59375 0
0.34375 0.59375 0
0.3125 0.625 0
0.34375 0.625 0
0.34375 0.59375 0
0.375 0.59375 0
0.34375 0.625 0
0.375 0.625 0
0.375 0.5 0
0.40625 0.5 0
0.375 0.53125 0
0.40625 0.53125 0
0.40625 0.5 0
0.4375 0.5 0
0.40625 0.53125 0
0.4375 0.53125 0
0.375 0.53125 0
0.40625 0.53125 0
0.375 0.5625 0
0.40625 0.5625 0
0.40625 0.53125 0
0.4375 0.53125 0
0.40625 0.5625 0
0.4375 0.5625 0
0.4375 0.5 0
0.46875 0.5 0
0.4375 0.53125 0
0.46875 0.53125 0
0.46875 0.5 0
0.5 0.5 0
0.46875 0.53125 0
0.5 0.53125 0
0.4375 0.53125 0
0.46875 0.53125 0
0.4375 0.5625 0
0.46875 0.5625 0
0.46875 0.53125 0
0.5 0.53125 0
0.46875 0.5625 0
0.5 0.5625 0
0.375 0.5625 0
0.40625 0.5625 0
0.375 0.59375 0
0.40625 0.59375 0
0.40625 0.5625 0
0.4375 0.5625 0
0.40625 0.59375 0
0.4375 0.59375 0
0.375 0.59375 0
0.40625 0.59375 0
0.375 0.625 0
0.40625 0.625 0
0.40625 0.59375 0
0.4375 0.59375 0
0.40625 0.625 0
0.4375 0.625 0
0.4375 0.5625 0
0.46875 0.5625 0
0.4375 0.59375 0
0.46875 0.59375 0
0.46875 0.5625 0
0.5 0.5625 0
0.46875 0.59375 0
0.5 0.59375 0
0.4375 0.59375 0
0.46875 0.59375 0
0.4375 0.625 0
0.46875 0.625 0
0.46875 0.59375 0
0.5 0.59375 0
0.46875 0.625 0
0.5 0.625 0
0.25 0.625 0
0.28125 0.625 0
0.25 0.65625 0
0.28125 0.65625 0
0.28125 0.625 0
0.3125 0.625 0
0.28125 0.65625 0
0.3125 0.65625 0
0.25 0.65625 0
0.28125 0.65625 0
0.25 0.6875 0
0.28125 0.6875 0
0.28125 0.65625 0
0.3125 0.65625 0
0.28125 0.6875 0
0.3125 0.6875 0
0.3125 0.625 0
0.34375 0.625 0
0.3125 0.65625 0
0.34375 0.65625 0
0.34375 0.625 0
0.375 0.625 0
0.34375 0.65625 0
0.375 0.65625 0
0.3125 0.65625 0
0.34375 0.65625 0
0.3125 0.6875 0
0.34375 0.6875 0
0.34375 0.65625 0
0.375 0.65625 0
0.34375 0.6875 0
0.375 0.6875 0
0.25 0.6875 0
0.28125 0.6875 0
0.25 0.71875 0
0.28125 0.71875 0
0.28125 0.6875 0
0.3125 0.6875 0
0.28125 0.71875 0
0.3125 0.71875 0
0.25 0.71875 0
0.28125 0.71875 0
0.25 0.75 0
0.28125 0.75 0
0.28125 0.71875 0
0.3125 0.71875 0
0.28125 0.75 0
0.3125 0.75 0
0.3125 0.6875 0
0.34375 0.6875 0
0.3125 0.71875 0
0.34375 0.71875 0
0.34375 0.6875 0
0.375 0.6875 0
0.34375 0.71875 0
0.375 0.71875 0
0.3125 0.71875 0
0.34375 0.71875 0
0.3125 0.75 0
0.34375 0.75 0
0.34375 0.71875 0
0.375 0.71875 0
0.34375 0.75 0
0.375 0.75 0
0.375 0.625 0
0.40625 0.625 0
0.375 0.65625 0
0.40625 0.65625 0
0.40625 0.625 0
0.4375 0.625 0
0.40625 0.65625 0
0.4375 0.65625 0
0.375 0.65625 0
0.40625 0.65625 0
0.375 0.6875 0
0.40625 0.6875 0
0.40625 0.65625 0
0.4375 0.65625 0
0.40625 0.6875 0
0.4375 0.6875 0
0.4375 0.625 0
0.46875 0.625 0
0.4375 0.65625 0
0.46875 0.65625 0
0.46875 0.625 0
0.5 0.625 0
0.46875 0.65625 0
0.5 0.65625 0
0.4375 0.65625 0
0.46875 0.65625 0
0.4375 0.6875 0
0.46875 0.6875 0
0.46875 0.65625 0
0.5 0.65625 0
0.46875 0.6875 0
0.5 0.6875 0
0.375 0.6875 0
0.40625 0.6875 0
0.375 0.71875 0
0.40625 0.71875 0
0.40625 0.6875 0
0.4375 0.6875 0
0.40625 0.71875 0
0.4375 0.71875 0
0.375 0.71875 0
0.40625 0.71875 0
0.375 0.75 0
0.40625 0.75 0
0.40625 0.71875 0
0.4375 0.71875 0
0.40625 0.75 0
0.4375 0.75 0
0.4375 0.6875 0
0.46875 0.6875 0
0.4375 0.71875 0
0.46875 0.71875 0
0.46875 0.6875 0
0.5 0.6875 0
0.46875 0.71875 0
0.5 0.71875 0
0.4375 0.71875 0
0.46875 0.71875 0
0.4375 0.75 0
0.46875 0.75 0
0.46875 0.71875 0
0.5 0.71875 0
0.46875 0.75 0
0.5 0.75 0
0 0.75 0
0.03125 0.75 0
0 0.78125 0
0.03125 0.78125 0
0.03125 0.75 0
0.0625 0.75 0
0.03125 0.78125 0
0.0625 0.78125 0
0 0.78125 0
0.03125 0.78125 0
0 0.8125 0
0.03125 0.8125 0
0.03125 0.78125 0
0.0625 0.78125 0
0.03125 0.8125 0
0.0625 0.8125 0
0.0625 0.75 0
0.09375 0.75 0
0.0625 0.78125 0
0.09375 0.78125 0
0.09375 0.75 0
0.125 0.75 0
0.09375 0.78125 0
0.125 0.78125 0
0.0625 0.78125 0
0.09375 0.78125 0
0.0625 0.8125 0
0.09375 0.8125 0
0.09375 0.78125 0
0.125 0.78125 0
0.09375 0.8125 0
0.125 0.8125 0
0 0.8125 0
0.03125 0.8125 0
0 0.84375 0
0.03125 0.84375 0
0.03125 0.8125 0
0.0625 0.8125 0
0.03125 0.84375 0
0.0625 0.84375 0
0 0.84375 0
0.03125 0.84375 0
0 0.875 0
0.03125 0.875 0
0.03125 0.84375 0
0.0625 0.84375 0
0.03125 0.875 0
0.0625 0.875 0
0.0625 0.8125 0
0.09375 0.8125 0
0.0625 0.84375 0
0.09375 0.84375 0
0.09375 0.8125 0
0.125 0.8125 0
0.09375 0.84375 0
0.125 0.84375 0
0.0625 0.84375 0
0.09375 0.84375 0
0.0625 0.875 0
0.09375 0.875 0
0.09375 0.84375 0
0.125 0.84375 0
0.09375 0.875 0
0.125 0.875 0
0.125 0.75 0
0.15625 0.75 0
0.125 0.78125 0
0.15625 0.78125 0
0.15625 0.75 0
0.1875 0.75 0
0.15625 0.78125 0
0.1875 0.78125 0
0.125 0.78125 0
0.15625 0.78125 0
0.125 0.8125 0
0.15625 0.8125 0
0.15625 0.78125 0
0.1875 0.78125 0
0.15625 0.8125 0
0.1875 0.8125 0
0.1875 0.75 0
0.21875 0.75 0
0.1875 0.78125 0
0.21875 0.78125 0
0.21875 0.75 0
0.25 0.75 0
0.21875 0.78125 0
0.25 0.78125 0
0.1875 0.78125 0
0.21875 0.78125 0
0.1875 0.8125 0
0.21875 0.8125 0
0.21875 0.78125 0
0.25 0.78125 0
0.21875 0.8125 0
0.25 0.8125 0
0.125 0.8125 0
0.15625 0.8125 0
0.125 0.84375 0
0.15625 0.84375 0
0.15625 0.8125 0
[...]
POINT_DATA 4096
SCALARS State_InstatPDEProblemContainer_0 double 1
LOOKUP_TABLE default
-0.00186838 -0.00186749 -0.00199864 -0.00199791 -0.00186749 -0.00186667 -0.00199791 -0.00199755 -0.00199864 -0.00199791 -0.00212813 -0.00212757 -0.00199791 -0.00199755 -0.00212757 -0.00212764 -0.00186667 -0.0018659 -0.00199755 -0.00199755 -0.0018659 -0.00186518 -0.00199755 -0.00199795 -0.00199755 -0.00199755 -0.00212764 -0.00212836 -0.00199755 -0.00199795 -0.00212836 -0.00212979 -0.00212813 -0.00212757 -0.00225632 -0.00225591 -0.00212757 -0.00212764 -0.00225591 -0.00225636 -0.00225632 -0.00225591 -0.00238273 -0.00238245 -0.00225591 -0.00225636 -0.00238245 -0.00238321 -0.00212764 -0.00212836 -0.00225636 -0.00225771 -0.00212836 -0.00212979 -0.00225771 -0.00226001 -0.00225636 -0.00225771 -0.00238321 -0.00238504 -0.00225771 -0.00226001 -0.00238504 -0.00238801 -0.00186518 -0.0018645 -0.00199795 -0.00199877 -0.0018645 -0.00186385 -0.00199877 -0.00200009 -0.00199795 -0.00199877 -0.00212979 -0.002132 -0.00199877 -0.00200009 -0.002132 -0.00213511 -0.00186385 -0.00186323 -0.00200009 -0.00200201 -0.00186323 -0.00186264 -0.00200201 -0.00200465 -0.00200009 -0.00200201 -0.00213511 -0.00213929 -0.00200201 -0.00200465 -0.00213929 -0.00214479 -0.00212979 -0.002132 -0.00226001 -0.00226337 -0.002132 -0.00213511 -0.00226337 -0.00226794 -0.00226001 -0.00226337 -0.00238801 -0.00239224 -0.00226337 -0.00226794 -0.00239224 -0.00239786 -0.00213511 -0.00213929 -0.00226794 -0.00227393 -0.00213929 -0.00214479 -0.00227393 -0.00228162 -0.00226794 -0.00227393 -0.00239786 -0.00240507 -0.00227393 -0.00228162 -0.00240507 -0.00241416 -0.00238273 -0.00238245 -0.00250695 -0.00250678 -0.00238245 -0.00238321 -0.00250678 -0.00250776 -0.00250695 -0.00250678 -0.00262869 -0.0026286 -0.00250678 -0.00250776 -0.0026286 -0.00262972 -0.00238321 -0.00238504 -0.00250776 -0.00250993 -0.00238504 -0.00238801 -0.00250993 -0.00251336 -0.00250776 -0.00250993 -0.00262972 -0.00263208 -0.00250993 -0.00251336 -0.00263208 -0.00263573 -0.00262869 -0.0026286 -0.00274774 -0.0027477 -0.0026286 -0.00262972 -0.0027477 -0.00274888 -0.00274774 -0.0027477 -0.00286398 -0.00286398 -0.0027477 -0.00274888 -0.00286398 -0.00286515 -0.00262972 -0.00263208 -0.00274888 -0.0027513 -0.00263208 -0.00263573 -0.0027513 -0.00275498 -0.00274888 -0.0027513 -0.00286515 -0.0028675 -0.0027513 -0.00275498 -0.0028675 -0.00287105 -0.00238801 -0.00239224 -0.00251336 -0.00251812 -0.00239224 -0.00239786 -0.00251812 -0.00252436 -0.00251336 -0.00251812 -0.00263573 -0.00264074 -0.00251812 -0.00252436 -0.00264074 -0.0026472 -0.00239786 -0.00240507 -0.00252436 -0.00253224 -0.00240507 -0.00241416 -0.00253224 -0.00254194 -0.00252436 -0.00253224 -0.0026472 -0.00265522 -0.00253224 -0.00254194 -0.00265522 -0.00266491 -0.00263573 -0.00264074 -0.00275498 -0.00275997 -0.00264074 -0.0026472 -0.00275997 -0.00276632 -0.00275498 -0.00275997 -0.00287105 -0.00287582 -0.00275997 -0.00276632 -0.00287582 -0.0028818 -0.0026472 -0.00265522 -0.00276632 -0.00277408 -0.00265522 -0.00266491 -0.00277408 -0.00278327 -0.00276632 -0.00277408 -0.0028818 -0.00288901 -0.00277408 -0.00278327 -0.00288901 -0.0028974 -0.00186264 -0.00186206 -0.00200465 -0.00200825 -0.00186206 -0.00186149 -0.00200825 -0.00201314 -0.00200465 -0.00200825 -0.00214479 -0.00215198 -0.00200825 -0.00201314 -0.00215198 -0.0021614 -0.00186149 -0.00186091 -0.00201314 -0.00201987 -0.00186091 -0.00186032 -0.00201987 -0.00202937 -0.00201314 -0.00201987 -0.0021614 -0.00217387 -0.00201987 -0.00202937 -0.00217387 -0.00219067 -0.00214479 -0.00215198 -0.00228162 -0.00229141 -0.00215198 -0.0021614 -0.00229141 -0.00230386 -0.00228162 -0.00229141 -0.00241416 -0.00242544 -0.00229141 -0.00230386 -0.00242544 -0.00243934 -0.0021614 -0.00217387 -0.00230386 -0.00231972 -0.00217387 -0.00219067 -0.00231972 -0.00233999 -0.00230386 -0.00231972 -0.00243934 -0.00245635 -0.00231972 -0.00233999 -0.00245635 -0.00247691 -0.00186032 -0.00185965 -0.00202937 -0.00204339 -0.00185965 -0.0018588 -0.00204339 -0.0020657 -0.00202937 -0.00204339 -0.00219067 -0.00221386 -0.00204339 -0.0020657 -0.00221386 -0.00224649 -0.0018588 -0.00185737 -0.0020657 -0.00210473 -0.00185737 -0.00185567 -0.00210473 -0.00218881 -0.0020657 -0.00210473 -0.00224649 -0.00229309 -0.00210473 -0.00218881 -0.00229309 -0.00234201 -0.00219067 -0.00221386 -0.00233999 -0.00236578 -0.00221386 -0.00224649 -0.00236578 -0.00239801 -0.00233999 -0.00236578 -0.00247691 -0.00250122 -0.00236578 -0.00239801 -0.00250122 -0.00252852 -0.00224649 -0.00229309 -0.00239801 -0.00243423 -0.00229309 -0.00234201 -0.00243423 -0.00247138 -0.00239801 -0.00243423 -0.00252852 -0.00255713 -0.00243423 -0.00247138 -0.00255713 -0.00258464 -0.00241416 -0.00242544 -0.00254194 -0.0025537 -0.00242544 -0.00243934 -0.0025537 -0.00256775 -0.00254194 -0.0025537 -0.00266491 -0.00267636 -0.0025537 -0.00256775 -0.00267636 -0.00268965 -0.00243934 -0.00245635 -0.00256775 -0.00258426 -0.00245635 -0.00247691 -0.00258426 -0.00260326 -0.00256775 -0.00258426 -0.00268965 -0.00270471 -0.00258426 -0.00260326 -0.00270471 -0.00272133 -0.00266491 -0.00267636 -0.00278327 -0.0027939 -0.00267636 -0.00268965 -0.0027939 -0.00280589 -0.00278327 -0.0027939 -0.0028974 -0.00290689 -0.0027939 -0.00280589 -0.00290689 -0.00291735 -0.00268965 -0.00270471 -0.00280589 -0.00281907 -0.00270471 -0.00272133 -0.00281907 -0.00283312 -0.00280589 -0.00281907 -0.00291735 -0.00292853 -0.00281907 -0.00283312 -0.00292853 -0.0029401 -0.00247691 -0.00250122 -0.00260326 -0.00262438 -0.00250122 -0.00252852 -0.00262438 -0.00264674 -0.00260326 -0.00262438 -0.00272133 -0.002739 -0.00262438 -0.00264674 -0.002739 -0.00275691 -0.00252852 -0.00255713 -0.00264674 -0.00266898 -0.00255713 -0.00258464 -0.00266898 -0.00268993 -0.00264674 -0.00266898 -0.00275691 -0.00277419 -0.00266898 -0.00268993 -0.00277419 -0.00279013 -0.00272133 -0.002739 -0.00283312 -0.00284753 -0.002739 -0.00275691 -0.00284753 -0.00286169 -0.00283312 -0.00284753 -0.0029401 -0.00295163 -0.00284753 -0.00286169 -0.00295163 -0.00296264 -0.00275691 -0.00277419 -0.00286169 -0.00287498 -0.00277419 -0.00279013 -0.00287498 -0.00288703 -0.00286169 -0.00287498 -0.00296264 -0.00297273 -0.00287498 -0.00288703 -0.00297273 -0.00298168 -0.00286398 -0.00286398 -0.00297738 -0.00297738 -0.00286398 -0.00286515 -0.00297738 -0.00297849 -0.00297738 -0.00297738 -0.00308797 -0.00308797 -0.00297738 -0.00297849 -0.00308797 -0.00308896 -0.00286515 -0.0028675 -0.00297849 -0.00298069 -0.0028675 -0.00287105 -0.00298069 -0.00298398 -0.00297849 -0.00298069 -0.00308896 -0.00309093 -0.00298069 -0.00298398 -0.00309093 -0.00309389 -0.00308797 -0.00308797 -0.00319584 -0.00319581 -0.00308797 -0.00308896 -0.00319581 -0.00319666 -0.00319584 -0.00319581 -0.00330112 -0.00330106 -0.00319581 -0.00319666 -0.00330106 -0.00330173 -0.00308896 -0.00309093 -0.00319666 -0.00319836 -0.00309093 -0.00309389 -0.00319836 -0.00320091 -0.00319666 -0.00319836 -0.00330173 -0.00330313 -0.00319836 -0.00320091 -0.00330313 -0.00330523 -0.00287105 -0.00287582 -0.00298398 -0.00298837 -0.00287582 -0.0028818 -0.00298837 -0.00299382 -0.00298398 -0.00298837 -0.00309389 -0.00309779 -0.00298837 -0.00299382 -0.00309779 -0.00310259 -0.0028818 -0.00288901 -0.00299382 -0.00300029 -0.00288901 -0.0028974 -0.00300029 -0.00300769 -0.00299382 -0.00300029 -0.00310259 -0.00310821 -0.00300029 -0.00300769 -0.00310821 -0.00311457 -0.00309389 -0.00309779 -0.00320091 -0.00320426 -0.00309779 -0.00310259 -0.00320426 -0.00320835 -0.00320091 -0.00320426 -0.00330523 -0.00330799 -0.00320426 -0.00320835 -0.00330799 -0.00331134 -0.00310259 -0.00310821 -0.00320835 -0.00321309 -0.00310821 -0.00311457 -0.00321309 -0.00321837 -0.00320835 -0.00321309 -0.00331134 -0.00331518 -0.00321309 -0.00321837 -0.00331518 -0.00331942 -0.00330112 -0.00330106 -0.003404 -0.00340389 -0.00330106 -0.00330173 -0.00340389 -0.00340437 -0.003404 -0.00340389 -0.00350467 -0.0035045 -0.00340389 -0.00340437 -0.0035045 -0.00350478 -0.00330173 -0.00330313 -0.00340437 -0.00340544 -0.00330313 -0.00330523 -0.00340544 -0.00340707 -0.00340437 -0.00340544 -0.00350478 -0.0035055 -0.00340544 -0.00340707 -0.0035055 -0.00350663 -0.00350467 -0.0035045 -0.00360335 -0.0036031 -0.0035045 -0.00350478 -0.0036031 -0.00360321 -0.00360335 -0.0036031 -0.0037 -0.0037 -0.0036031 -0.00360321 -0.0037 -0.0037 -0.00350478 -0.0035055 -0.00360321 -0.00360358 -0.0035055 -0.00350663 -0.00360358 -0.00360417 -0.00360321 -0.00360358 -0.0037 -0.0037 -0.00360358 -0.00360417 -0.0037 -0.0037 -0.00330523 -0.00330799 -0.00340707 -0.0034092 -0.00330799 -0.00331134 -0.0034092 -0.00341179 -0.00340707 -0.0034092 -0.00350663 -0.00350811 -0.0034092 -0.00341179 -0.00350811 -0.00350991 -0.00331134 -0.00331518 -0.00341179 -0.00341473 -0.00331518 -0.00331942 -0.00341473 -0.00341794 -0.00341179 -0.00341473 -0.00350991 -0.00351194 -0.00341473 -0.00341794 -0.00351194 -0.00351413 -0.00350663 -0.00350811 -0.00360417 -0.00360496 -0.00350811 -0.00350991 -0.00360496 -0.00360591 -0.00360417 -0.00360496 -0.0037 -0.0037 -0.00360496 -0.00360591 -0.0037 -0.0037 -0.00350991 -0.00351194 -0.00360591 -0.00360697 -0.00351194 -0.00351413 -0.00360697 -0.00360812 -0.00360591 -0.00360697 -0.0037 -0.0037 -0.00360697 -0.00360812 -0.0037 -0.0037 -0.0028974 -0.00290689 -0.00300769 -0.00301592 -0.00290689 -0.00291735 -0.00301592 -0.00302478 -0.00300769 -0.00301592 -0.00311457 -0.00312149 -0.00301592 -0.00302478 -0.00312149 -0.00312881 -0.00291735 -0.00292853 -0.00302478 -0.00303403 -0.00292853 -0.0029401 -0.00303403 -0.00304335 -0.00302478 -0.00303403 -0.00312881 -0.00313627 -0.00303403 -0.00304335 -0.00313627 -0.00314361 -0.00311457 -0.00312149 -0.00321837 -0.00322404 -0.00312149 -0.00312881 -0.00322404 -0.00322991 -0.00321837 -0.00322404 -0.00331942 -0.00332389 -0.00322404 -0.00322991 -0.00332389 -0.00332844 -0.00312881 -0.00313627 -0.00322991 -0.00323577 -0.00313627 -0.00314361 -0.00323577 -0.00324139 -0.00322991 -0.00323577 -0.00332844 -0.00333289 -0.00323577 -0.00324139 -0.00333289 -0.00333704 -0.0029401 -0.00295163 -0.00304335 -0.00305238 -0.00295163 -0.00296264 -0.00305238 -0.00306079 -0.00304335 -0.00305238 -0.00314361 -0.00315053 -0.00305238 -0.00306079 -0.00315053 -0.00315678 -0.00296264 -0.00297273 -0.00306079 -0.00306828 -0.00297273 -0.00298168 -0.00306828 -0.00307474 -0.00306079 -0.00306828 -0.00315678 -0.00316217 -0.00306828 -0.00307474 -0.00316217 -0.00316663 -0.00314361 -0.00315053 -0.00324139 -0.00324654 -0.00315053 -0.00315678 -0.00324654 -0.00325103 -0.00324139 -0.00324654 -0.00333704 -0.00334072 -0.00324654 -0.00325103 -0.00334072 -0.00334378 -0.00315678 -0.00316217 -0.00325103 -0.00325473 -0.00316217 -0.00316663 -0.00325473 -0.0032576 -0.00325103 -0.00325473 -0.00334378 -0.00334615 -0.00325473 -0.0032576 -0.00334615 -0.00334779 -0.00331942 -0.00332389 -0.00341794 -0.00342128 -0.00332389 -0.00332844 -0.00342128 -0.00342463 -0.00341794 -0.00342128 -0.00351413 -0.00351639 -0.00342128 -0.00342463 -0.00351639 -0.00351861 -0.00332844 -0.00333289 -0.00342463 -0.00342782 -0.00333289 -0.00333704 -0.00342782 -0.00343073 -0.00342463 -0.00342782 -0.00351861 -0.00352069 -0.00342782 -0.00343073 -0.00352069 -0.00352251 -0.00351413 -0.00351639 -0.00360812 -0.00360928 -0.00351639 -0.00351861 -0.00360928 -0.00361042 -0.00360812 -0.00360928 -0.0037 -0.0037 -0.00360928 -0.00361042 -0.0037 -0.0037 -0.00351861 -0.00352069 -0.00361042 -0.00361145 -0.00352069 -0.00352251 -0.00361145 -0.00361234 -0.00361042 -0.00361145 -0.0037 -0.0037 -0.00361145 -0.00361234 -0.0037 -0.0037 -0.00333704 -0.00334072 -0.00343073 -0.0034332 -0.00334072 -0.00334378 -0.0034332 -0.00343514 -0.00343073 -0.0034332 -0.00352251 -0.003524 -0.0034332 -0.00343514 -0.003524 -0.00352507 -0.00334378 -0.00334615 -0.00343514 -0.00343648 -0.00334615 -0.00334779 -0.00343648 -0.00343724 -0.00343514 -0.00343648 -0.00352507 -0.0035257 -0.00343648 -0.00343724 -0.0035257 -0.00352587 -0.00352251 -0.003524 -0.00361234 -0.00361302 -0.003524 -0.00352507 -0.00361302 -0.00361345 -0.00361234 -0.00361302 -0.0037 -0.0037 -0.00361302 -0.00361345 -0.0037 -0.0037 -0.00352507 -0.0035257 -0.00361345 -0.00361363 -0.0035257 -0.00352587 -0.00361363 -0.00361355 -0.00361345 -0.00361363 -0.0037 -0.0037 -0.00361363 -0.00361355 -0.0037 -0.0037 -0.00185567 -0.00213641 -0.00218881 -0.00225624 -0.00213641 -0.00230298 -0.00225624 -0.00234942 -0.00218881 -0.00225624 -0.00234201 -0.00239302 -0.00225624 -0.00234942 -0.00239302 -0.00244223 -0.00230298 -0.00241597 -0.00234942 -0.0024372 -0.00241597 -0.00250138 -0.0024372 -0.00251218 -0.00234942 -0.0024372 -0.00244223 -0.00249862 -0.0024372 -0.00251218 -0.00249862 -0.0025547 -0.00234201 -0.00239302 -0.00247138 -0.00250575 -0.00239302 -0.00244223 -0.00250575 -0.00254046 -0.00247138 -0.00250575 -0.00258464 -0.00261035 -0.00250575 -0.00254046 -0.00261035 -0.00263519 -0.00244223 -0.00249862 -0.00254046 -0.00257735 -0.00249862 -0.0025547 -0.00257735 -0.0026168 -0.00254046 -0.00257735 -0.00263519 -0.00266123 -0.00257735 -0.0026168 -0.00266123 -0.002689 -0.00250138 -0.00256937 -0.00251218 -0.00257524 -0.00256937 -0.00262495 -0.00257524 -0.00262829 -0.00251218 -0.00257524 -0.0025547 -0.00260636 -0.00257524 -0.00262829 -0.00260636 -0.00265228 -0.00262495 -0.00267098 -0.00262829 -0.00267299 -0.00267098 -0.00270927 -0.00267299 -0.00271063 -0.00262829 -0.00267299 -0.00265228 -0.00269237 -0.00267299 -0.00271063 -0.00269237 -0.00272694 -0.0025547 -0.00260636 -0.0026168 -0.00265605 -0.00260636 -0.00265228 -0.00265605 -0.00269305 -0.0026168 -0.00265605 -0.002689 -0.00271779 -0.00265605 -0.00269305 -0.00271779 -0.00274623 -0.00265228 -0.00269237 -0.00269305 -0.00272675 -0.00269237 -0.00272694 -0.00272675 -0.0027567 -0.00269305 -0.00272675 -0.00274623 -0.00277318 -0.00272675 -0.0027567 -0.00277318 -0.0027979 -0.00258464 -0.00261035 -0.00268993 -0.0027092 -0.00261035 -0.00263519 -0.0027092 -0.0027276 -0.00268993 -0.0027092 -0.00279013 -0.00280464 -0.0027092 -0.0027276 -0.00280464 -0.00281824 -0.00263519 -0.00266123 -0.0027276 -0.00274632 -0.00266123 -0.002689 -0.00274632 -0.00276613 -0.0027276 -0.00274632 -0.00281824 -0.00283177 -0.00274632 -0.00276613 -0.00283177 -0.00284587 -0.00279013 -0.00280464 -0.00288703 -0.00289782 -0.00280464 -0.00281824 -0.00289782 -0.00290774 -0.00288703 -0.00289782 -0.00298168 -0.00298951 -0.00289782 -0.00290774 -0.00298951 -0.00299654 -0.00281824 -0.00283177 -0.00290774 -0.00291738 -0.00283177 -0.00284587 -0.00291738 -0.00292726 -0.00290774 -0.00291738 -0.00299654 -0.00300317 -0.00291738 -0.00292726 -0.00300317 -0.00300984 -0.002689 -0.00271779 -0.00276613 -0.00278695 -0.00271779 -0.00274623 -0.00278695 -0.00280814 -0.00276613 -0.00278695 -0.00284587 -0.00286075 -0.00278695 -0.00280814 -0.00286075 -0.00287615 -0.00274623 -0.00277318 -0.00280814 -0.00282888 -0.00277318 -0.0027979 -0.00282888 -0.00284847 -0.00280814 -0.00282888 -0.00287615 -0.00289159 -0.00282888 -0.00284847 -0.00289159 -0.00290654 -0.00284587 -0.00286075 -0.00292726 -0.00293764 -0.00286075 -0.00287615 -0.00293764 -0.00294851 -0.00292726 -0.00293764 -0.00300984 -0.00301681 -0.00293764 -0.00294851 -0.00301681 -0.00302417 -0.00287615 -0.00289159 -0.00294851 -0.00295962 -0.00289159 -0.00290654 -0.00295962 -0.00297062 -0.00294851 -0.00295962 -0.00302417 -0.00303181 -0.00295962 -0.00297062 -0.00303181 -0.00303953 -0.00270927 -0.00274106 -0.00271063 -0.00274215 -0.00274106 -0.00276724 -0.00274215 -0.0027683 -0.00271063 -0.00274215 -0.00272694 -0.00275639 -0.00274215 -0.0027683 -0.00275639 -0.00278111 -0.00276724 -0.00278849 -0.0027683 -0.00278962 -0.00278849 -0.00280528 -0.00278962 -0.00280655 -0.0027683 -0.00278962 -0.00278111 -0.00280147 -0.00278962 -0.00280655 -0.00280147 -0.00281774 -0.00272694 -0.00275639 -0.0027567 -0.00278279 -0.00275639 -0.00278111 -0.00278279 -0.00280507 -0.0027567 -0.00278279 -0.0027979 -0.00281998 -0.00278279 -0.00280507 -0.00281998 -0.00283918 -0.00278111 -0.00280147 -0.00280507 -0.00282363 -0.00280147 -0.00281774 -0.00282363 -0.00283861 -0.00280507 -0.00282363 -0.00283918 -0.00285541 -0.00282363 -0.00283861 -0.00285541 -0.00286866 -0.00280528 -0.00281799 -0.00280655 -0.0028194 -0.00281799 -0.00282689 -0.0028194 -0.00282842 -0.00280655 -0.0028194 -0.00281774 -0.00283016 -0.0028194 -0.00282842 -0.00283016 -0.0028389 -0.00282689 -0.00283216 -0.00282842 -0.00283377 -0.00283216 -0.0028339 -0.00283377 -0.00283554 -0.00282842 -0.00283377 -0.0028389 -0.0028441 -0.00283377 -0.00283554 -0.0028441 -0.00284582 -0.00281774 -0.00283016 -0.00283861 -0.00285012 -0.00283016 -0.0028389 -0.00285012 -0.00285826 -0.00283861 -0.00285012 -0.00286866 -0.00287892 -0.00285012 -0.00285826 -0.00287892 -0.00288621 -0.0028389 -0.0028441 -0.00285826 -0.00286311 -0.0028441 -0.00284582 -0.00286311 -0.00286471 -0.00285826 -0.00286311 -0.00288621 -0.00289056 -0.00286311 -0.00286471 -0.00289056 -0.00289199 -0.0027979 -0.00281998 -0.00284847 -0.00286639 -0.00281998 -0.00283918 -0.00286639 -0.00288228 -0.00284847 -0.00286639 -0.00290654 -0.00292054 -0.00286639 -0.00288228 -0.00292054 -0.00293319 -0.00283918 -0.00285541 -0.00288228 -0.00289593 -0.00285541 -0.00286866 -0.00289593 -0.0029072 -0.00288228 -0.00289593 -0.00293319 -0.00294423 -0.00289593 -0.0029072 -0.00294423 -0.00295346 -0.00290654 -0.00292054 -0.00297062 -0.00298112 -0.00292054 -0.00293319 -0.00298112 -0.0029908 -0.00297062 -0.00298112 -0.00303953 -0.00304706 -0.00298112 -0.0029908 -0.00304706 -0.00305414 -0.00293319 -0.00294423 -0.0029908 -0.00299938 -0.00294423 -0.00295346 -0.00299938 -0.00300664 -0.0029908 -0.00299938 -0.00305414 -0.00306051 -0.00299938 -0.00300664 -0.00306051 -0.00306598 -0.00286866 -0.00287892 -0.0029072 -0.002916 -0.00287892 -0.00288621 -0.002916 -0.0029223 -0.0029072 -0.002916 -0.00295346 -0.00296073 -0.002916 -0.0029223 -0.00296073 -0.00296596 -0.00288621 -0.00289056 -0.0029223 -0.00292606 -0.00289056 -0.00289199 -0.00292606 -0.00292728 -0.0029223 -0.00292606 -0.00296596 -0.00296909 -0.00292606 -0.00292728 -0.00296909 -0.0029701 -0.00295346 -0.00296073 -0.00300664 -0.00301241 -0.00296073 -0.00296596 -0.00301241 -0.00301659 -0.00300664 -0.00301241 -0.00306598 -0.00307036 -0.00301241 -0.00301659 -0.00307036 -0.00307355 -0.00296596 -0.00296909 -0.00301659 -0.00301909 -0.00296909 -0.0029701 -0.00301909 -0.00301987 -0.00301659 -0.00301909 -0.00307355 -0.00307545 -0.00301909 -0.00301987 -0.00307545 -0.00307602 -0.00298168 -0.00298951 -0.00307474 -0.00308021 -0.00298951 -0.00299654 -0.00308021 -0.00308493 -0.00307474 -0.00308021 -0.00316663 -0.00317021 -0.00308021 -0.00308493 -0.00317021 -0.00317311 -0.00299654 -0.00300317 -0.00308493 -0.00308922 -0.00300317 -0.00300984 -0.00308922 -0.00309341 -0.00308493 -0.00308922 -0.00317311 -0.00317557 -0.00308922 -0.00309341 -0.00317557 -0.00317788 -0.00316663 -0.00317021 -0.0032576 -0.0032597 -0.00317021 -0.00317311 -0.0032597 -0.00326119 -0.0032576 -0.0032597 -0.00334779 -0.00334878 -0.0032597 -0.00326119 -0.00334878 -0.00334923 -0.00317311 -0.00317557 -0.00326119 -0.00326227 -0.00317557 -0.00317788 -0.00326227 -0.00326316 -0.00326119 -0.00326227 -0.00334923 -0.00334931 -0.00326227 -0.00326316 -0.00334931 -0.00334921 -0.00300984 -0.00301681 -0.00309341 -0.00309777 -0.00301681 -0.00302417 -0.00309777 -0.00310242 -0.00309341 -0.00309777 -0.00317788 -0.00318025 -0.00309777 -0.00310242 -0.00318025 -0.00318283 -0.00302417 -0.00303181 -0.00310242 -0.00310734 -0.00303181 -0.00303953 -0.00310734 -0.00311244 -0.00310242 -0.00310734 -0.00318283 -0.00318566 -0.00310734 -0.00311244 -0.00318566 -0.00318871 -0.00317788 -0.00318025 -0.00326316 -0.00326407 -0.00318025 -0.00318283 -0.00326407 -0.00326512 -0.00326316 -0.00326407 -0.00334921 -0.00334909 -0.00326407 -0.00326512 -0.00334909 -0.00334909 -0.00318283 -0.00318566 -0.00326512 -0.0032664 -0.00318566 -0.00318871 -0.0032664 -0.00326789 -0.00326512 -0.0032664 -0.00334909 -0.00334928 -0.0032664 -0.00326789 -0.00334928 -0.00334968 -0.00334779 -0.00334878 -0.00343724 -0.00343744 -0.00334878 -0.00334923 -0.00343744 -0.00343721 -0.00343724 -0.00343744 -0.00352587 -0.00352564 -0.00343744 -0.00343721 -0.00352564 -0.00352508 -0.00334923 -0.00334931 -0.00343721 -0.00343667 -0.00334931 -0.00334921 -