# vtk DataFile Version 3.0
#This file was generated by the deal.II library on 2018/7/10 at 10:47:03
ASCII
DATASET UNSTRUCTURED_GRID

POINTS 4096 double
0 0.5 0
0.03125 0.5 0
0 0.53125 0
0.03125 0.53125 0
0.03125 0.5 0
0.0625 0.5 0
0.03125 0.53125 0
0.0625 0.53125 0
0 0.53125 0
0.03125 0.53125 0
0 0.5625 0
0.03125 0.5625 0
0.03125 0.53125 0
0.0625 0.53125 0
0.03125 0.5625 0
0.0625 0.5625 0
0.0625 0.5 0
0.09375 0.5 0
0.0625 0.53125 0
0.09375 0.53125 0
0.09375 0.5 0
0.125 0.5 0
0.09375 0.53125 0
0.125 0.53125 0
0.0625 0.53125 0
0.09375 0.53125 0
0.0625 0.5625 0
0.09375 0.5625 0
0.09375 0.53125 0
0.125 0.53125 0
0.09375 0.5625 0
0.125 0.5625 0
0 0.5625 0
0.03125 0.5625 0
0 0.59375 0
0.03125 0.59375 0
0.03125 0.5625 0
0.0625 0.5625 0
0.03125 0.59375 0
0.0625 0.59375 0
0 0.59375 0
0.03125 0.59375 0
0 0.625 0
0.03125 0.625 0
0.03125 0.59375 0
0.0625 0.59375 0
0.03125 0.625 0
0.0625 0.625 0
0.0625 0.5625 0
0.09375 0.5625 0
0.0625 0.59375 0
0.09375 0.59375 0
0.09375 0.5625 0
0.125 0.5625 0
0.09375 0.59375 0
0.125 0.59375 0
0.0625 0.59375 0
0.09375 0.59375 0
0.0625 0.625 0
0.09375 0.625 0
0.09375 0.59375 0
0.125 0.59375 0
0.09375 0.625 0
0.125 0.625 0
0.125 0.5 0
0.15625 0.5 0
0.125 0.53125 0
0.15625 0.53125 0
0.15625 0.5 0
0.1875 0.5 0
0.15625 0.53125 0
0.1875 0.53125 0
0.125 0.53125 0
0.15625 0.53125 0
0.125 0.5625 0
0.15625 0.5625 0
0.15625 0.53125 0
0.1875 0.53125 0
0.15625 0.5625 0
0.1875 0.5625 0
0.1875 0.5 0
0.21875 0.5 0
0.1875 0.53125 0
0.21875 0.53125 0
0.21875 0.5 0
0.25 0.5 0
0.21875 0.53125 0
0.25 0.53125 0
0.1875 0.53125 0
0.21875 0.53125 0
0.1875 0.5625 0
0.21875 0.5625 0
0.21875 0.53125 0
0.25 0.53125 0
0.21875 0.5625 0
0.25 0.5625 0
0.125 0.5625 0
0.15625 0.5625 0
0.125 0.59375 0
0.15625 0.59375 0
0.15625 0.5625 0
0.1875 0.5625 0
0.15625 0.59375 0
0.1875 0.59375 0
0.125 0.59375 0
0.15625 0.59375 0
0.125 0.625 0
0.15625 0.625 0
0.15625 0.59375 0
0.1875 0.59375 0
0.15625 0.625 0
0.1875 0.625 0
0.1875 0.5625 0
0.21875 0.5625 0
0.1875 0.59375 0
0.21875 0.59375 0
0.21875 0.5625 0
0.25 0.5625 0
0.21875 0.59375 0
0.25 0.59375 0
0.1875 0.59375 0
0.21875 0.59375 0
0.1875 0.625 0
0.21875 0.625 0
0.21875 0.59375 0
0.25 0.59375 0
0.21875 0.625 0
0.25 0.625 0
0 0.625 0
0.03125 0.625 0
0 0.65625 0
0.03125 0.65625 0
0.03125 0.625 0
0.0625 0.625 0
0.03125 0.65625 0
0.0625 0.65625 0
0 0.65625 0
0.03125 0.65625 0
0 0.6875 0
0.03125 0.6875 0
0.03125 0.65625 0
0.0625 0.65625 0
0.03125 0.6875 0
0.0625 0.6875 0
0.0625 0.625 0
0.09375 0.625 0
0.0625 0.65625 0
0.09375 0.65625 0
0.09375 0.625 0
0.125 0.625 0
0.09375 0.65625 0
0.125 0.65625 0
0.0625 0.65625 0
0.09375 0.65625 0
0.0625 0.6875 0
0.09375 0.6875 0
0.09375 0.65625 0
0.125 0.65625 0
0.09375 0.6875 0
0.125 0.6875 0
0 0.6875 0
0.03125 0.6875 0
0 0.71875 0
0.03125 0.71875 0
0.03125 0.6875 0
0.0625 0.6875 0
0.03125 0.71875 0
0.0625 0.71875 0
0 0.71875 0
0.03125 0.71875 0
0 0.75 0
0.03125 0.75 0
0.03125 0.71875 0
0.0625 0.71875 0
0.03125 0.75 0
0.0625 0.75 0
0.0625 0.6875 0
0.09375 0.6875 0
0.0625 0.71875 0
0.09375 0.71875 0
0.09375 0.6875 0
0.125 0.6875 0
0.09375 0.71875 0
0.125 0.71875 0
0.0625 0.71875 0
0.09375 0.71875 0
0.0625 0.75 0
0.09375 0.75 0
0.09375 0.71875 0
0.125 0.71875 0
0.09375 0.75 0
0.125 0.75 0
0.125 0.625 0
0.15625 0.625 0
0.125 0.65625 0
0.15625 0.65625 0
0.15625 0.625 0
0.1875 0.625 0
0.15625 0.65625 0
0.1875 0.65625 0
0.125 0.65625 0
0.15625 0.65625 0
0.125 0.6875 0
0.15625 0.6875 0
0.15625 0.65625 0
0.1875 0.65625 0
0.15625 0.6875 0
0.1875 0.6875 0
0.1875 0.625 0
0.21875 0.625 0
0.1875 0.65625 0
0.21875 0.65625 0
0.21875 0.625 0
0.25 0.625 0
0.21875 0.65625 0
0.25 0.65625 0
0.1875 0.65625 0
0.21875 0.65625 0
0.1875 0.6875 0
0.21875 0.6875 0
0.21875 0.65625 0
0.25 0.65625 0
0.21875 0.6875 0
0.25 0.6875 0
0.125 0.6875 0
0.15625 0.6875 0
0.125 0.71875 0
0.15625 0.71875 0
0.15625 0.6875 0
0.1875 0.6875 0
0.15625 0.71875 0
0.1875 0.71875 0
0.125 0.71875 0
0.15625 0.71875 0
0.125 0.75 0
0.15625 0.75 0
0.15625 0.71875 0
0.1875 0.71875 0
0.15625 0.75 0
0.1875 0.75 0
0.1875 0.6875 0
0.21875 0.6875 0
0.1875 0.71875 0
0.21875 0.71875 0
0.21875 0.6875 0
0.25 0.6875 0
0.21875 0.71875 0
0.25 0.71875 0
0.1875 0.71875 0
0.21875 0.71875 0
0.1875 0.75 0
0.21875 0.75 0
0.21875 0.71875 0
0.25 0.71875 0
0.21875 0.75 0
0.25 0.75 0
0.25 0.5 0
0.28125 0.5 0
0.25 0.53125 0
0.28125 0.53125 0
0.28125 0.5 0
0.3125 0.5 0
0.28125 0.53125 0
0.3125 0.53125 0
0.25 0.53125 0
0.28125 0.53125 0
0.25 0.5625 0
0.28125 0.5625 0
0.28125 0.53125 0
0.3125 0.53125 0
0.28125 0.5625 0
0.3125 0.5625 0
0.3125 0.5 0
0.34375 0.5 0
0.3125 0.53125 0
0.34375 0.53125 0
0.34375 0.5 0
0.375 0.5 0
0.34375 0.53125 0
0.375 0.53125 0
0.3125 0.53125 0
0.34375 0.53125 0
0.3125 0.5625 0
0.34375 0.5625 0
0.34375 0.53125 0
0.375 0.53125 0
0.34375 0.5625 0
0.375 0.5625 0
0.25 0.5625 0
0.28125 0.5625 0
0.25 0.59375 0
0.28125 0.59375 0
0.28125 0.5625 0
0.3125 0.5625 0
0.28125 0.59375 0
0.3125 0.59375 0
0.25 0.59375 0
0.28125 0.59375 0
0.25 0.625 0
0.28125 0.625 0
0.28125 0.59375 0
0.3125 0.59375 0
0.28125 0.625 0
0.3125 0.625 0
0.3125 0.5625 0
0.34375 0.5625 0
0.3125 0.59375 0
0.34375 0.59375 0
0.34375 0.5625 0
0.375 0.5625 0
0.34375 0.59375 0
0.375 0.59375 0
0.3125 0.59375 0
0.34375 0.59375 0
0.3125 0.625 0
0.34375 0.625 0
0.34375 0.59375 0
0.375 0.59375 0
0.34375 0.625 0
0.375 0.625 0
0.375 0.5 0
0.40625 0.5 0
0.375 0.53125 0
0.40625 0.53125 0
0.40625 0.5 0
0.4375 0.5 0
0.40625 0.53125 0
0.4375 0.53125 0
0.375 0.53125 0
0.40625 0.53125 0
0.375 0.5625 0
0.40625 0.5625 0
0.40625 0.53125 0
0.4375 0.53125 0
0.40625 0.5625 0
0.4375 0.5625 0
0.4375 0.5 0
0.46875 0.5 0
0.4375 0.53125 0
0.46875 0.53125 0
0.46875 0.5 0
0.5 0.5 0
0.46875 0.53125 0
0.5 0.53125 0
0.4375 0.53125 0
0.46875 0.53125 0
0.4375 0.5625 0
0.46875 0.5625 0
0.46875 0.53125 0
0.5 0.53125 0
0.46875 0.5625 0
0.5 0.5625 0
0.375 0.5625 0
0.40625 0.5625 0
0.375 0.59375 0
0.40625 0.59375 0
0.40625 0.5625 0
0.4375 0.5625 0
0.40625 0.59375 0
0.4375 0.59375 0
0.375 0.59375 0
0.40625 0.59375 0
0.375 0.625 0
0.40625 0.625 0
0.40625 0.59375 0
0.4375 0.59375 0
0.40625 0.625 0
0.4375 0.625 0
0.4375 0.5625 0
0.46875 0.5625 0
0.4375 0.59375 0
0.46875 0.59375 0
0.46875 0.5625 0
0.5 0.5625 0
0.46875 0.59375 0
0.5 0.59375 0
0.4375 0.59375 0
0.46875 0.59375 0
0.4375 0.625 0
0.46875 0.625 0
0.46875 0.59375 0
0.5 0.59375 0
0.46875 0.625 0
0.5 0.625 0
0.25 0.625 0
0.28125 0.625 0
0.25 0.65625 0
0.28125 0.65625 0
0.28125 0.625 0
0.3125 0.625 0
0.28125 0.65625 0
0.3125 0.65625 0
0.25 0.65625 0
0.28125 0.65625 0
0.25 0.6875 0
0.28125 0.6875 0
0.28125 0.65625 0
0.3125 0.65625 0
0.28125 0.6875 0
0.3125 0.6875 0
0.3125 0.625 0
0.34375 0.625 0
0.3125 0.65625 0
0.34375 0.65625 0
0.34375 0.625 0
0.375 0.625 0
0.34375 0.65625 0
0.375 0.65625 0
0.3125 0.65625 0
0.34375 0.65625 0
0.3125 0.6875 0
0.34375 0.6875 0
0.34375 0.65625 0
0.375 0.65625 0
0.34375 0.6875 0
0.375 0.6875 0
0.25 0.6875 0
0.28125 0.6875 0
0.25 0.71875 0
0.28125 0.71875 0
0.28125 0.6875 0
0.3125 0.6875 0
0.28125 0.71875 0
0.3125 0.71875 0
0.25 0.71875 0
0.28125 0.71875 0
0.25 0.75 0
0.28125 0.75 0
0.28125 0.71875 0
0.3125 0.71875 0
0.28125 0.75 0
0.3125 0.75 0
0.3125 0.6875 0
0.34375 0.6875 0
0.3125 0.71875 0
0.34375 0.71875 0
0.34375 0.6875 0
0.375 0.6875 0
0.34375 0.71875 0
0.375 0.71875 0
0.3125 0.71875 0
0.34375 0.71875 0
0.3125 0.75 0
0.34375 0.75 0
0.34375 0.71875 0
0.375 0.71875 0
0.34375 0.75 0
0.375 0.75 0
0.375 0.625 0
0.40625 0.625 0
0.375 0.65625 0
0.40625 0.65625 0
0.40625 0.625 0
0.4375 0.625 0
0.40625 0.65625 0
0.4375 0.65625 0
0.375 0.65625 0
0.40625 0.65625 0
0.375 0.6875 0
0.40625 0.6875 0
0.40625 0.65625 0
0.4375 0.65625 0
0.40625 0.6875 0
0.4375 0.6875 0
0.4375 0.625 0
0.46875 0.625 0
0.4375 0.65625 0
0.46875 0.65625 0
0.46875 0.625 0
0.5 0.625 0
0.46875 0.65625 0
0.5 0.65625 0
0.4375 0.65625 0
0.46875 0.65625 0
0.4375 0.6875 0
0.46875 0.6875 0
0.46875 0.65625 0
0.5 0.65625 0
0.46875 0.6875 0
0.5 0.6875 0
0.375 0.6875 0
0.40625 0.6875 0
0.375 0.71875 0
0.40625 0.71875 0
0.40625 0.6875 0
0.4375 0.6875 0
0.40625 0.71875 0
0.4375 0.71875 0
0.375 0.71875 0
0.40625 0.71875 0
0.375 0.75 0
0.40625 0.75 0
0.40625 0.71875 0
0.4375 0.71875 0
0.40625 0.75 0
0.4375 0.75 0
0.4375 0.6875 0
0.46875 0.6875 0
0.4375 0.71875 0
0.46875 0.71875 0
0.46875 0.6875 0
0.5 0.6875 0
0.46875 0.71875 0
0.5 0.71875 0
0.4375 0.71875 0
0.46875 0.71875 0
0.4375 0.75 0
0.46875 0.75 0
0.46875 0.71875 0
0.5 0.71875 0
0.46875 0.75 0
0.5 0.75 0
0 0.75 0
0.03125 0.75 0
0 0.78125 0
0.03125 0.78125 0
0.03125 0.75 0
0.0625 0.75 0
0.03125 0.78125 0
0.0625 0.78125 0
0 0.78125 0
0.03125 0.78125 0
0 0.8125 0
0.03125 0.8125 0
0.03125 0.78125 0
0.0625 0.78125 0
0.03125 0.8125 0
0.0625 0.8125 0
0.0625 0.75 0
0.09375 0.75 0
0.0625 0.78125 0
0.09375 0.78125 0
0.09375 0.75 0
0.125 0.75 0
0.09375 0.78125 0
0.125 0.78125 0
0.0625 0.78125 0
0.09375 0.78125 0
0.0625 0.8125 0
0.09375 0.8125 0
0.09375 0.78125 0
0.125 0.78125 0
0.09375 0.8125 0
0.125 0.8125 0
0 0.8125 0
0.03125 0.8125 0
0 0.84375 0
0.03125 0.84375 0
0.03125 0.8125 0
0.0625 0.8125 0
0.03125 0.84375 0
0.0625 0.84375 0
0 0.84375 0
0.03125 0.84375 0
0 0.875 0
0.03125 0.875 0
0.03125 0.84375 0
0.0625 0.84375 0
0.03125 0.875 0
0.0625 0.875 0
0.0625 0.8125 0
0.09375 0.8125 0
0.0625 0.84375 0
0.09375 0.84375 0
0.09375 0.8125 0
0.125 0.8125 0
0.09375 0.84375 0
0.125 0.84375 0
0.0625 0.84375 0
0.09375 0.84375 0
0.0625 0.875 0
0.09375 0.875 0
0.09375 0.84375 0
0.125 0.84375 0
0.09375 0.875 0
0.125 0.875 0
0.125 0.75 0
0.15625 0.75 0
0.125 0.78125 0
0.15625 0.78125 0
0.15625 0.75 0
0.1875 0.75 0
0.15625 0.78125 0
0.1875 0.78125 0
0.125 0.78125 0
0.15625 0.78125 0
0.125 0.8125 0
0.15625 0.8125 0
0.15625 0.78125 0
0.1875 0.78125 0
0.15625 0.8125 0
0.1875 0.8125 0
0.1875 0.75 0
0.21875 0.75 0
0.1875 0.78125 0
0.21875 0.78125 0
0.21875 0.75 0
0.25 0.75 0
0.21875 0.78125 0
0.25 0.78125 0
0.1875 0.78125 0
0.21875 0.78125 0
0.1875 0.8125 0
0.21875 0.8125 0
0.21875 0.78125 0
0.25 0.78125 0
0.21875 0.8125 0
0.25 0.8125 0
0.125 0.8125 0
0.15625 0.8125 0
0.125 0.84375 0
0.15625 0.84375 0
0.15625 0.8125 0
[...]
POINT_DATA 4096
SCALARS State_InstatPDEProblemContainer_0 double 1
LOOKUP_TABLE default
-0.00191981 -0.00191887 -0.00205362 -0.00205284 -0.00191887 -0.001918 -0.00205284 -0.00205244 -0.00205362 -0.00205284 -0.00218663 -0.00218602 -0.00205284 -0.00205244 -0.00218602 -0.00218606 -0.001918 -0.00191718 -0.00205244 -0.00205242 -0.00191718 -0.00191642 -0.00205242 -0.0020528 -0.00205244 -0.00205242 -0.00218606 -0.00218678 -0.00205242 -0.0020528 -0.00218678 -0.00218822 -0.00218663 -0.00218602 -0.00231828 -0.00231783 -0.00218602 -0.00218606 -0.00231783 -0.00231826 -0.00231828 -0.00231783 -0.00244809 -0.00244777 -0.00231783 -0.00231826 -0.00244777 -0.00244852 -0.00218606 -0.00218678 -0.00231826 -0.00231962 -0.00218678 -0.00218822 -0.00231962 -0.00232196 -0.00231826 -0.00231962 -0.00244852 -0.00245038 -0.00231962 -0.00232196 -0.00245038 -0.00245341 -0.00191642 -0.0019157 -0.0020528 -0.00205363 -0.0019157 -0.00191502 -0.00205363 -0.00205497 -0.0020528 -0.00205363 -0.00218822 -0.00219047 -0.00205363 -0.00205497 -0.00219047 -0.00219365 -0.00191502 -0.00191437 -0.00205497 -0.00205693 -0.00191437 -0.00191375 -0.00205693 -0.00205964 -0.00205497 -0.00205693 -0.00219365 -0.00219793 -0.00205693 -0.00205964 -0.00219793 -0.00220357 -0.00218822 -0.00219047 -0.00232196 -0.00232539 -0.00219047 -0.00219365 -0.00232539 -0.00233007 -0.00232196 -0.00232539 -0.00245341 -0.00245773 -0.00232539 -0.00233007 -0.00245773 -0.00246348 -0.00219365 -0.00219793 -0.00233007 -0.0023362 -0.00219793 -0.00220357 -0.0023362 -0.00234409 -0.00233007 -0.0023362 -0.00246348 -0.00247088 -0.0023362 -0.00234409 -0.00247088 -0.00248018 -0.00244809 -0.00244777 -0.00257565 -0.00257544 -0.00244777 -0.00244852 -0.00257544 -0.00257642 -0.00257565 -0.00257544 -0.00270064 -0.00270052 -0.00257544 -0.00257642 -0.00270052 -0.00270165 -0.00244852 -0.00245038 -0.00257642 -0.00257863 -0.00245038 -0.00245341 -0.00257863 -0.00258212 -0.00257642 -0.00257863 -0.00270165 -0.00270405 -0.00257863 -0.00258212 -0.00270405 -0.00270777 -0.00270064 -0.00270052 -0.00282286 -0.0028228 -0.00270052 -0.00270165 -0.0028228 -0.00282398 -0.00282286 -0.0028228 -0.00294218 -0.00294216 -0.0028228 -0.00282398 -0.00294216 -0.00294333 -0.00270165 -0.00270405 -0.00282398 -0.00282644 -0.00270405 -0.00270777 -0.00282644 -0.0028302 -0.00282398 -0.00282644 -0.00294333 -0.00294573 -0.00282644 -0.0028302 -0.00294573 -0.00294935 -0.00245341 -0.00245773 -0.00258212 -0.00258699 -0.00245773 -0.00246348 -0.00258699 -0.00259338 -0.00258212 -0.00258699 -0.00270777 -0.00271289 -0.00258699 -0.00259338 -0.00271289 -0.0027195 -0.00246348 -0.00247088 -0.00259338 -0.00260144 -0.00247088 -0.00248018 -0.00260144 -0.00261139 -0.00259338 -0.00260144 -0.0027195 -0.00272771 -0.00260144 -0.00261139 -0.00272771 -0.00273763 -0.00270777 -0.00271289 -0.0028302 -0.0028353 -0.00271289 -0.0027195 -0.0028353 -0.00284179 -0.0028302 -0.0028353 -0.00294935 -0.00295421 -0.0028353 -0.00284179 -0.00295421 -0.00296034 -0.0027195 -0.00272771 -0.00284179 -0.00284973 -0.00272771 -0.00273763 -0.00284973 -0.00285914 -0.00284179 -0.00284973 -0.00296034 -0.00296771 -0.00284973 -0.00285914 -0.00296771 -0.00297629 -0.00191375 -0.00191314 -0.00205964 -0.00206333 -0.00191314 -0.00191255 -0.00206333 -0.00206835 -0.00205964 -0.00206333 -0.00220357 -0.00221095 -0.00206333 -0.00206835 -0.00221095 -0.00222062 -0.00191255 -0.00191196 -0.00206835 -0.00207526 -0.00191196 -0.00191135 -0.00207526 -0.00208502 -0.00206835 -0.00207526 -0.00222062 -0.00223343 -0.00207526 -0.00208502 -0.00223343 -0.00225068 -0.00220357 -0.00221095 -0.00234409 -0.00235413 -0.00221095 -0.00222062 -0.00235413 -0.00236691 -0.00234409 -0.00235413 -0.00248018 -0.00249175 -0.00235413 -0.00236691 -0.00249175 -0.00250602 -0.00222062 -0.00223343 -0.00236691 -0.00238319 -0.00223343 -0.00225068 -0.00238319 -0.00240399 -0.00236691 -0.00238319 -0.00250602 -0.00252346 -0.00238319 -0.00240399 -0.00252346 -0.00254455 -0.00191135 -0.00191067 -0.00208502 -0.00209943 -0.00191067 -0.0019098 -0.00209943 -0.00212236 -0.00208502 -0.00209943 -0.00225068 -0.00227449 -0.00209943 -0.00212236 -0.00227449 -0.00230799 -0.0019098 -0.00190836 -0.00212236 -0.00216245 -0.00190836 -0.00190667 -0.00216245 -0.00224875 -0.00212236 -0.00216245 -0.00230799 -0.00235581 -0.00216245 -0.00224875 -0.00235581 -0.00240599 -0.00225068 -0.00227449 -0.00240399 -0.00243046 -0.00227449 -0.00230799 -0.00243046 -0.00246352 -0.00240399 -0.00243046 -0.00254455 -0.00256949 -0.00243046 -0.00246352 -0.00256949 -0.00259749 -0.00230799 -0.00235581 -0.00246352 -0.00250067 -0.00235581 -0.00240599 -0.00250067 -0.00253878 -0.00246352 -0.00250067 -0.00259749 -0.00262683 -0.00250067 -0.00253878 -0.00262683 -0.00265505 -0.00248018 -0.00249175 -0.00261139 -0.00262344 -0.00249175 -0.00250602 -0.00262344 -0.00263784 -0.00261139 -0.00262344 -0.00273763 -0.00274937 -0.00262344 -0.00263784 -0.00274937 -0.00276298 -0.00250602 -0.00252346 -0.00263784 -0.00265478 -0.00252346 -0.00254455 -0.00265478 -0.00267426 -0.00263784 -0.00265478 -0.00276298 -0.00277843 -0.00265478 -0.00267426 -0.00277843 -0.00279546 -0.00273763 -0.00274937 -0.00285914 -0.00287003 -0.00274937 -0.00276298 -0.00287003 -0.00288231 -0.00285914 -0.00287003 -0.00297629 -0.00298601 -0.00287003 -0.00288231 -0.00298601 -0.00299672 -0.00276298 -0.00277843 -0.00288231 -0.00289582 -0.00277843 -0.00279546 -0.00289582 -0.00291021 -0.00288231 -0.00289582 -0.00299672 -0.00300817 -0.00289582 -0.00291021 -0.00300817 -0.00302002 -0.00254455 -0.00256949 -0.00267426 -0.00269591 -0.00256949 -0.00259749 -0.00269591 -0.00271884 -0.00267426 -0.00269591 -0.00279546 -0.00281356 -0.00269591 -0.00271884 -0.00281356 -0.00283193 -0.00259749 -0.00262683 -0.00271884 -0.00274164 -0.00262683 -0.00265505 -0.00274164 -0.00276313 -0.00271884 -0.00274164 -0.00283193 -0.00284963 -0.00274164 -0.00276313 -0.00284963 -0.00286597 -0.00279546 -0.00281356 -0.00291021 -0.00292497 -0.00281356 -0.00283193 -0.00292497 -0.00293947 -0.00291021 -0.00292497 -0.00302002 -0.00303182 -0.00292497 -0.00293947 -0.00303182 -0.0030431 -0.00283193 -0.00284963 -0.00293947 -0.0029531 -0.00284963 -0.00286597 -0.0029531 -0.00296544 -0.00293947 -0.0029531 -0.0030431 -0.00305343 -0.0029531 -0.00296544 -0.00305343 -0.0030626 -0.00294218 -0.00294216 -0.00305858 -0.00305857 -0.00294216 -0.00294333 -0.00305857 -0.00305967 -0.00305858 -0.00305857 -0.00317209 -0.00317206 -0.00305857 -0.00305967 -0.00317206 -0.00317305 -0.00294333 -0.00294573 -0.00305967 -0.00306191 -0.00294573 -0.00294935 -0.00306191 -0.00306527 -0.00305967 -0.00306191 -0.00317305 -0.00317506 -0.00306191 -0.00306527 -0.00317506 -0.00317807 -0.00317209 -0.00317206 -0.00328279 -0.00328274 -0.00317206 -0.00317305 -0.00328274 -0.00328358 -0.00328279 -0.00328274 -0.00339083 -0.00339074 -0.00328274 -0.00328358 -0.00339074 -0.00339141 -0.00317305 -0.00317506 -0.00328358 -0.00328531 -0.00317506 -0.00317807 -0.00328531 -0.00328791 -0.00328358 -0.00328531 -0.00339141 -0.00339283 -0.00328531 -0.00328791 -0.00339283 -0.00339497 -0.00294935 -0.00295421 -0.00306527 -0.00306974 -0.00295421 -0.00296034 -0.00306974 -0.00307531 -0.00306527 -0.00306974 -0.00317807 -0.00318205 -0.00306974 -0.00307531 -0.00318205 -0.00318695 -0.00296034 -0.00296771 -0.00307531 -0.00308193 -0.00296771 -0.00297629 -0.00308193 -0.00308951 -0.00307531 -0.00308193 -0.00318695 -0.0031927 -0.00308193 -0.00308951 -0.0031927 -0.0031992 -0.00317807 -0.00318205 -0.00328791 -0.00329132 -0.00318205 -0.00318695 -0.00329132 -0.00329549 -0.00328791 -0.00329132 -0.00339497 -0.00339777 -0.00329132 -0.00329549 -0.00339777 -0.00340119 -0.00318695 -0.0031927 -0.00329549 -0.00330034 -0.0031927 -0.0031992 -0.00330034 -0.00330574 -0.00329549 -0.00330034 -0.00340119 -0.00340511 -0.00330034 -0.00330574 -0.00340511 -0.00340943 -0.00339083 -0.00339074 -0.00349638 -0.00349625 -0.00339074 -0.00339141 -0.00349625 -0.00349673 -0.00349638 -0.00349625 -0.00359966 -0.00359948 -0.00349625 -0.00349673 -0.00359948 -0.00359974 -0.00339141 -0.00339283 -0.00349673 -0.00349781 -0.00339283 -0.00339497 -0.00349781 -0.00349946 -0.00349673 -0.00349781 -0.00359974 -0.00360047 -0.00349781 -0.00349946 -0.00360047 -0.00360161 -0.00359966 -0.00359948 -0.00370089 -0.00370062 -0.00359948 -0.00359974 -0.00370062 -0.00370072 -0.00370089 -0.00370062 -0.0038 -0.0038 -0.00370062 -0.00370072 -0.0038 -0.0038 -0.00359974 -0.00360047 -0.00370072 -0.00370109 -0.00360047 -0.00360161 -0.00370109 -0.00370169 -0.00370072 -0.00370109 -0.0038 -0.0038 -0.00370109 -0.00370169 -0.0038 -0.0038 -0.00339497 -0.00339777 -0.00349946 -0.00350163 -0.00339777 -0.00340119 -0.00350163 -0.00350427 -0.00349946 -0.00350163 -0.00360161 -0.00360312 -0.00350163 -0.00350427 -0.00360312 -0.00360495 -0.00340119 -0.00340511 -0.00350427 -0.00350727 -0.00340511 -0.00340943 -0.00350727 -0.00351054 -0.00350427 -0.00350727 -0.00360495 -0.00360702 -0.00350727 -0.00351054 -0.00360702 -0.00360926 -0.00360161 -0.00360312 -0.00370169 -0.00370249 -0.00360312 -0.00360495 -0.00370249 -0.00370346 -0.00370169 -0.00370249 -0.0038 -0.0038 -0.00370249 -0.00370346 -0.0038 -0.0038 -0.00360495 -0.00360702 -0.00370346 -0.00370454 -0.00360702 -0.00360926 -0.00370454 -0.00370571 -0.00370346 -0.00370454 -0.0038 -0.0038 -0.00370454 -0.00370571 -0.0038 -0.0038 -0.00297629 -0.00298601 -0.00308951 -0.00309792 -0.00298601 -0.00299672 -0.00309792 -0.00310699 -0.00308951 -0.00309792 -0.0031992 -0.00320628 -0.00309792 -0.00310699 -0.00320628 -0.00321376 -0.00299672 -0.00300817 -0.00310699 -0.00311645 -0.00300817 -0.00302002 -0.00311645 -0.00312599 -0.00310699 -0.00311645 -0.00321376 -0.00322139 -0.00311645 -0.00312599 -0.00322139 -0.0032289 -0.0031992 -0.00320628 -0.00330574 -0.00331153 -0.00320628 -0.00321376 -0.00331153 -0.00331753 -0.00330574 -0.00331153 -0.00340943 -0.003414 -0.00331153 -0.00331753 -0.003414 -0.00341865 -0.00321376 -0.00322139 -0.00331753 -0.00332352 -0.00322139 -0.0032289 -0.00332352 -0.00332927 -0.00331753 -0.00332352 -0.00341865 -0.0034232 -0.00332352 -0.00332927 -0.0034232 -0.00342744 -0.00302002 -0.00303182 -0.00312599 -0.00313524 -0.00303182 -0.0030431 -0.00313524 -0.00314384 -0.00312599 -0.00313524 -0.0032289 -0.00323598 -0.00313524 -0.00314384 -0.00323598 -0.00324238 -0.0030431 -0.00305343 -0.00314384 -0.00315152 -0.00305343 -0.0030626 -0.00315152 -0.00315813 -0.00314384 -0.00315152 -0.00324238 -0.00324789 -0.00315152 -0.00315813 -0.00324789 -0.00325245 -0.0032289 -0.00323598 -0.00332927 -0.00333453 -0.00323598 -0.00324238 -0.00333453 -0.00333912 -0.00332927 -0.00333453 -0.00342744 -0.0034312 -0.00333453 -0.00333912 -0.0034312 -0.00343433 -0.00324238 -0.00324789 -0.00333912 -0.00334291 -0.00324789 -0.00325245 -0.00334291 -0.00334584 -0.00333912 -0.00334291 -0.00343433 -0.00343675 -0.00334291 -0.00334584 -0.00343675 -0.00343842 -0.00340943 -0.003414 -0.00351054 -0.00351396 -0.003414 -0.00341865 -0.00351396 -0.00351737 -0.00351054 -0.00351396 -0.00360926 -0.00361156 -0.00351396 -0.00351737 -0.00361156 -0.00361383 -0.00341865 -0.0034232 -0.00351737 -0.00352064 -0.0034232 -0.00342744 -0.00352064 -0.0035236 -0.00351737 -0.00352064 -0.00361383 -0.00361595 -0.00352064 -0.0035236 -0.00361595 -0.00361781 -0.00360926 -0.00361156 -0.00370571 -0.0037069 -0.00361156 -0.00361383 -0.0037069 -0.00370806 -0.00370571 -0.0037069 -0.0038 -0.0038 -0.0037069 -0.00370806 -0.0038 -0.0038 -0.00361383 -0.00361595 -0.00370806 -0.00370911 -0.00361595 -0.00361781 -0.00370911 -0.00371001 -0.00370806 -0.00370911 -0.0038 -0.0038 -0.00370911 -0.00371001 -0.0038 -0.0038 -0.00342744 -0.0034312 -0.0035236 -0.00352612 -0.0034312 -0.00343433 -0.00352612 -0.0035281 -0.0035236 -0.00352612 -0.00361781 -0.00361933 -0.00352612 -0.0035281 -0.00361933 -0.00362042 -0.00343433 -0.00343675 -0.0035281 -0.00352948 -0.00343675 -0.00343842 -0.00352948 -0.00353024 -0.0035281 -0.00352948 -0.00362042 -0.00362106 -0.00352948 -0.00353024 -0.00362106 -0.00362123 -0.00361781 -0.00361933 -0.00371001 -0.00371071 -0.00361933 -0.00362042 -0.00371071 -0.00371115 -0.00371001 -0.00371071 -0.0038 -0.0038 -0.00371071 -0.00371115 -0.0038 -0.0038 -0.00362042 -0.00362106 -0.00371115 -0.00371133 -0.00362106 -0.00362123 -0.00371133 -0.00371124 -0.00371115 -0.00371133 -0.0038 -0.0038 -0.00371133 -0.00371124 -0.0038 -0.0038 -0.00190667 -0.00219489 -0.00224875 -0.00231794 -0.00219489 -0.00236589 -0.00231794 -0.00241358 -0.00224875 -0.00231794 -0.00240599 -0.00245834 -0.00231794 -0.00241358 -0.00245834 -0.00250884 -0.00236589 -0.00248188 -0.00241358 -0.00250367 -0.00248188 -0.00256954 -0.00250367 -0.00258063 -0.00241358 -0.00250367 -0.00250884 -0.00256671 -0.00250367 -0.00258063 -0.00256671 -0.00262427 -0.00240599 -0.00245834 -0.00253878 -0.00257405 -0.00245834 -0.00250884 -0.00257405 -0.00260967 -0.00253878 -0.00257405 -0.00265505 -0.00268141 -0.00257405 -0.00260967 -0.00268141 -0.0027069 -0.00250884 -0.00256671 -0.00260967 -0.00264752 -0.00256671 -0.00262427 -0.00264752 -0.00268801 -0.00260967 -0.00264752 -0.0027069 -0.00273362 -0.00264752 -0.00268801 -0.00273362 -0.00276212 -0.00256954 -0.00263931 -0.00258063 -0.00264534 -0.00263931 -0.00269636 -0.00264534 -0.00269979 -0.00258063 -0.00264534 -0.00262427 -0.00267729 -0.00264534 -0.00269979 -0.00267729 -0.00272442 -0.00269636 -0.0027436 -0.00269979 -0.00274567 -0.0027436 -0.00278289 -0.00274567 -0.00278429 -0.00269979 -0.00274567 -0.00272442 -0.00276556 -0.00274567 -0.00278429 -0.00276556 -0.00280103 -0.00262427 -0.00267729 -0.00268801 -0.00272828 -0.00267729 -0.00272442 -0.00272828 -0.00276626 -0.00268801 -0.00272828 -0.00276212 -0.00279166 -0.00272828 -0.00276626 -0.00279166 -0.00282084 -0.00272442 -0.00276556 -0.00276626 -0.00280084 -0.00276556 -0.00280103 -0.00280084 -0.00283158 -0.00276626 -0.00280084 -0.00282084 -0.0028485 -0.00280084 -0.00283158 -0.0028485 -0.00287387 -0.00265505 -0.00268141 -0.00276313 -0.00278289 -0.00268141 -0.0027069 -0.00278289 -0.00280176 -0.00276313 -0.00278289 -0.00286597 -0.00288085 -0.00278289 -0.00280176 -0.00288085 -0.0028948 -0.0027069 -0.00273362 -0.00280176 -0.00282096 -0.00273362 -0.00276212 -0.00282096 -0.00284129 -0.00280176 -0.00282096 -0.0028948 -0.00290868 -0.00282096 -0.00284129 -0.00290868 -0.00292314 -0.00286597 -0.00288085 -0.00296544 -0.0029765 -0.00288085 -0.0028948 -0.0029765 -0.00298667 -0.00296544 -0.0029765 -0.0030626 -0.00307063 -0.0029765 -0.00298667 -0.00307063 -0.00307782 -0.0028948 -0.00290868 -0.00298667 -0.00299655 -0.00290868 -0.00292314 -0.00299655 -0.00300668 -0.00298667 -0.00299655 -0.00307782 -0.00308462 -0.00299655 -0.00300668 -0.00308462 -0.00309146 -0.00276212 -0.00279166 -0.00284129 -0.00286265 -0.00279166 -0.00282084 -0.00286265 -0.0028844 -0.00284129 -0.00286265 -0.00292314 -0.0029384 -0.00286265 -0.0028844 -0.0029384 -0.0029542 -0.00282084 -0.0028485 -0.0028844 -0.00290568 -0.0028485 -0.00287387 -0.00290568 -0.00292578 -0.0028844 -0.00290568 -0.0029542 -0.00297005 -0.00290568 -0.00292578 -0.00297005 -0.00298539 -0.00292314 -0.0029384 -0.00300668 -0.00301734 -0.0029384 -0.0029542 -0.00301734 -0.00302849 -0.00300668 -0.00301734 -0.00309146 -0.00309861 -0.00301734 -0.00302849 -0.00309861 -0.00310615 -0.0029542 -0.00297005 -0.00302849 -0.00303989 -0.00297005 -0.00298539 -0.00303989 -0.00305116 -0.00302849 -0.00303989 -0.00310615 -0.00311399 -0.00303989 -0.00305116 -0.00311399 -0.00312191 -0.00278289 -0.00281551 -0.00278429 -0.00281664 -0.00281551 -0.00284238 -0.00281664 -0.00284347 -0.00278429 -0.00281664 -0.00280103 -0.00283125 -0.00281664 -0.00284347 -0.00283125 -0.00285662 -0.00284238 -0.00286418 -0.00284347 -0.00286535 -0.00286418 -0.00288141 -0.00286535 -0.00288272 -0.00284347 -0.00286535 -0.00285662 -0.00287751 -0.00286535 -0.00288272 -0.00287751 -0.0028942 -0.00280103 -0.00283125 -0.00283158 -0.00285835 -0.00283125 -0.00285662 -0.00285835 -0.00288121 -0.00283158 -0.00285835 -0.00287387 -0.00289652 -0.00285835 -0.00288121 -0.00289652 -0.00291623 -0.00285662 -0.00287751 -0.00288121 -0.00290026 -0.00287751 -0.0028942 -0.00290026 -0.00291563 -0.00288121 -0.00290026 -0.00291623 -0.00293289 -0.00290026 -0.00291563 -0.00293289 -0.00294647 -0.00288141 -0.00289445 -0.00288272 -0.00289591 -0.00289445 -0.00290358 -0.00289591 -0.00290516 -0.00288272 -0.00289591 -0.0028942 -0.00290695 -0.00289591 -0.00290516 -0.00290695 -0.00291592 -0.00290358 -0.00290899 -0.00290516 -0.00291065 -0.00290899 -0.00291078 -0.00291065 -0.00291246 -0.00290516 -0.00291065 -0.00291592 -0.00292125 -0.00291065 -0.00291246 -0.00292125 -0.00292302 -0.0028942 -0.00290695 -0.00291563 -0.00292744 -0.00290695 -0.00291592 -0.00292744 -0.0029358 -0.00291563 -0.00292744 -0.00294647 -0.002957 -0.00292744 -0.0029358 -0.002957 -0.00296448 -0.00291592 -0.00292125 -0.0029358 -0.00294077 -0.00292125 -0.00292302 -0.00294077 -0.00294241 -0.0029358 -0.00294077 -0.00296448 -0.00296895 -0.00294077 -0.00294241 -0.00296895 -0.00297041 -0.00287387 -0.00289652 -0.00292578 -0.00294416 -0.00289652 -0.00291623 -0.00294416 -0.00296047 -0.00292578 -0.00294416 -0.00298539 -0.00299975 -0.00294416 -0.00296047 -0.00299975 -0.00301273 -0.00291623 -0.00293289 -0.00296047 -0.00297448 -0.00293289 -0.00294647 -0.00297448 -0.00298604 -0.00296047 -0.00297448 -0.00301273 -0.00302406 -0.00297448 -0.00298604 -0.00302406 -0.00303352 -0.00298539 -0.00299975 -0.00305116 -0.00306194 -0.00299975 -0.00301273 -0.00306194 -0.00307187 -0.00305116 -0.00306194 -0.00312191 -0.00312963 -0.00306194 -0.00307187 -0.00312963 -0.00313689 -0.00301273 -0.00302406 -0.00307187 -0.00308066 -0.00302406 -0.00303352 -0.00308066 -0.00308811 -0.00307187 -0.00308066 -0.00313689 -0.00314342 -0.00308066 -0.00308811 -0.00314342 -0.00314902 -0.00294647 -0.002957 -0.00298604 -0.00299507 -0.002957 -0.00296448 -0.00299507 -0.00300152 -0.00298604 -0.00299507 -0.00303352 -0.00304098 -0.00299507 -0.00300152 -0.00304098 -0.00304634 -0.00296448 -0.00296895 -0.00300152 -0.00300538 -0.00296895 -0.00297041 -0.00300538 -0.00300664 -0.00300152 -0.00300538 -0.00304634 -0.00304955 -0.00300538 -0.00300664 -0.00304955 -0.00305058 -0.00303352 -0.00304098 -0.00308811 -0.00309403 -0.00304098 -0.00304634 -0.00309403 -0.00309831 -0.00308811 -0.00309403 -0.00314902 -0.00315352 -0.00309403 -0.00309831 -0.00315352 -0.00315679 -0.00304634 -0.00304955 -0.00309831 -0.00310087 -0.00304955 -0.00305058 -0.00310087 -0.00310166 -0.00309831 -0.00310087 -0.00315679 -0.00315873 -0.00310087 -0.00310166 -0.00315873 -0.0031593 -0.0030626 -0.00307063 -0.00315813 -0.00316373 -0.00307063 -0.00307782 -0.00316373 -0.00316856 -0.00315813 -0.00316373 -0.00325245 -0.00325612 -0.00316373 -0.00316856 -0.00325612 -0.00325908 -0.00307782 -0.00308462 -0.00316856 -0.00317295 -0.00308462 -0.00309146 -0.00317295 -0.00317726 -0.00316856 -0.00317295 -0.00325908 -0.0032616 -0.00317295 -0.00317726 -0.0032616 -0.00326396 -0.00325245 -0.00325612 -0.00334584 -0.00334799 -0.00325612 -0.00325908 -0.00334799 -0.00334951 -0.00334584 -0.00334799 -0.00343842 -0.00343943 -0.00334799 -0.00334951 -0.00343943 -0.00343988 -0.00325908 -0.0032616 -0.00334951 -0.0033506 -0.0032616 -0.00326396 -0.0033506 -0.00335151 -0.00334951 -0.0033506 -0.00343988 -0.00343996 -0.0033506 -0.00335151 -0.00343996 -0.00343985 -0.00309146 -0.00309861 -0.00317726 -0.00318172 -0.00309861 -0.00310615 -0.00318172 -0.00318648 -0.00317726 -0.00318172 -0.00326396 -0.00326639 -0.00318172 -0.00318648 -0.00326639 -0.00326904 -0.00310615 -0.00311399 -0.00318648 -0.00319153 -0.00311399 -0.00312191 -0.00319153 -0.00319675 -0.00318648 -0.00319153 -0.00326904 -0.00327194 -0.00319153 -0.00319675 -0.00327194 -0.00327505 -0.00326396 -0.00326639 -0.00335151 -0.00335244 -0.00326639 -0.00326904 -0.00335244 -0.00335351 -0.00335151 -0.00335244 -0.00343985 -0.00343973 -0.00335244 -0.00335351 -0.00343973 -0.00343972 -0.00326904 -0.00327194 -0.00335351 -0.00335482 -0.00327194 -0.00327505 -0.00335482 -0.00335635 -0.00335351 -0.00335482 -0.00343972 -0.00343991 -0.00335482 -0.00335635 -0.00343991 -0.00344032 -0.00343842 -0.00343943 -0.00353024 -0.00353045 -0.00343943 -0.00343988 -0.00353045 -0.00353021 -0.00353024 -0.00353045 -0.00362123 -0.00362099 -0.00353045 -0.00353021 -0.00362099 -0.00362042 -0.00343988 -0.0034