# vtk DataFile Version 3.0
#This file was generated by the deal.II library on 2018/7/10 at 10:46:51
ASCII
DATASET UNSTRUCTURED_GRID

POINTS 4096 double
0 0.5 0
0.03125 0.5 0
0 0.53125 0
0.03125 0.53125 0
0.03125 0.5 0
0.0625 0.5 0
0.03125 0.53125 0
0.0625 0.53125 0
0 0.53125 0
0.03125 0.53125 0
0 0.5625 0
0.03125 0.5625 0
0.03125 0.53125 0
0.0625 0.53125 0
0.03125 0.5625 0
0.0625 0.5625 0
0.0625 0.5 0
0.09375 0.5 0
0.0625 0.53125 0
0.09375 0.53125 0
0.09375 0.5 0
0.125 0.5 0
0.09375 0.53125 0
0.125 0.53125 0
0.0625 0.53125 0
0.09375 0.53125 0
0.0625 0.5625 0
0.09375 0.5625 0
0.09375 0.53125 0
0.125 0.53125 0
0.09375 0.5625 0
0.125 0.5625 0
0 0.5625 0
0.03125 0.5625 0
0 0.59375 0
0.03125 0.59375 0
0.03125 0.5625 0
0.0625 0.5625 0
0.03125 0.59375 0
0.0625 0.59375 0
0 0.59375 0
0.03125 0.59375 0
0 0.625 0
0.03125 0.625 0
0.03125 0.59375 0
0.0625 0.59375 0
0.03125 0.625 0
0.0625 0.625 0
0.0625 0.5625 0
0.09375 0.5625 0
0.0625 0.59375 0
0.09375 0.59375 0
0.09375 0.5625 0
0.125 0.5625 0
0.09375 0.59375 0
0.125 0.59375 0
0.0625 0.59375 0
0.09375 0.59375 0
0.0625 0.625 0
0.09375 0.625 0
0.09375 0.59375 0
0.125 0.59375 0
0.09375 0.625 0
0.125 0.625 0
0.125 0.5 0
0.15625 0.5 0
0.125 0.53125 0
0.15625 0.53125 0
0.15625 0.5 0
0.1875 0.5 0
0.15625 0.53125 0
0.1875 0.53125 0
0.125 0.53125 0
0.15625 0.53125 0
0.125 0.5625 0
0.15625 0.5625 0
0.15625 0.53125 0
0.1875 0.53125 0
0.15625 0.5625 0
0.1875 0.5625 0
0.1875 0.5 0
0.21875 0.5 0
0.1875 0.53125 0
0.21875 0.53125 0
0.21875 0.5 0
0.25 0.5 0
0.21875 0.53125 0
0.25 0.53125 0
0.1875 0.53125 0
0.21875 0.53125 0
0.1875 0.5625 0
0.21875 0.5625 0
0.21875 0.53125 0
0.25 0.53125 0
0.21875 0.5625 0
0.25 0.5625 0
0.125 0.5625 0
0.15625 0.5625 0
0.125 0.59375 0
0.15625 0.59375 0
0.15625 0.5625 0
0.1875 0.5625 0
0.15625 0.59375 0
0.1875 0.59375 0
0.125 0.59375 0
0.15625 0.59375 0
0.125 0.625 0
0.15625 0.625 0
0.15625 0.59375 0
0.1875 0.59375 0
0.15625 0.625 0
0.1875 0.625 0
0.1875 0.5625 0
0.21875 0.5625 0
0.1875 0.59375 0
0.21875 0.59375 0
0.21875 0.5625 0
0.25 0.5625 0
0.21875 0.59375 0
0.25 0.59375 0
0.1875 0.59375 0
0.21875 0.59375 0
0.1875 0.625 0
0.21875 0.625 0
0.21875 0.59375 0
0.25 0.59375 0
0.21875 0.625 0
0.25 0.625 0
0 0.625 0
0.03125 0.625 0
0 0.65625 0
0.03125 0.65625 0
0.03125 0.625 0
0.0625 0.625 0
0.03125 0.65625 0
0.0625 0.65625 0
0 0.65625 0
0.03125 0.65625 0
0 0.6875 0
0.03125 0.6875 0
0.03125 0.65625 0
0.0625 0.65625 0
0.03125 0.6875 0
0.0625 0.6875 0
0.0625 0.625 0
0.09375 0.625 0
0.0625 0.65625 0
0.09375 0.65625 0
0.09375 0.625 0
0.125 0.625 0
0.09375 0.65625 0
0.125 0.65625 0
0.0625 0.65625 0
0.09375 0.65625 0
0.0625 0.6875 0
0.09375 0.6875 0
0.09375 0.65625 0
0.125 0.65625 0
0.09375 0.6875 0
0.125 0.6875 0
0 0.6875 0
0.03125 0.6875 0
0 0.71875 0
0.03125 0.71875 0
0.03125 0.6875 0
0.0625 0.6875 0
0.03125 0.71875 0
0.0625 0.71875 0
0 0.71875 0
0.03125 0.71875 0
0 0.75 0
0.03125 0.75 0
0.03125 0.71875 0
0.0625 0.71875 0
0.03125 0.75 0
0.0625 0.75 0
0.0625 0.6875 0
0.09375 0.6875 0
0.0625 0.71875 0
0.09375 0.71875 0
0.09375 0.6875 0
0.125 0.6875 0
0.09375 0.71875 0
0.125 0.71875 0
0.0625 0.71875 0
0.09375 0.71875 0
0.0625 0.75 0
0.09375 0.75 0
0.09375 0.71875 0
0.125 0.71875 0
0.09375 0.75 0
0.125 0.75 0
0.125 0.625 0
0.15625 0.625 0
0.125 0.65625 0
0.15625 0.65625 0
0.15625 0.625 0
0.1875 0.625 0
0.15625 0.65625 0
0.1875 0.65625 0
0.125 0.65625 0
0.15625 0.65625 0
0.125 0.6875 0
0.15625 0.6875 0
0.15625 0.65625 0
0.1875 0.65625 0
0.15625 0.6875 0
0.1875 0.6875 0
0.1875 0.625 0
0.21875 0.625 0
0.1875 0.65625 0
0.21875 0.65625 0
0.21875 0.625 0
0.25 0.625 0
0.21875 0.65625 0
0.25 0.65625 0
0.1875 0.65625 0
0.21875 0.65625 0
0.1875 0.6875 0
0.21875 0.6875 0
0.21875 0.65625 0
0.25 0.65625 0
0.21875 0.6875 0
0.25 0.6875 0
0.125 0.6875 0
0.15625 0.6875 0
0.125 0.71875 0
0.15625 0.71875 0
0.15625 0.6875 0
0.1875 0.6875 0
0.15625 0.71875 0
0.1875 0.71875 0
0.125 0.71875 0
0.15625 0.71875 0
0.125 0.75 0
0.15625 0.75 0
0.15625 0.71875 0
0.1875 0.71875 0
0.15625 0.75 0
0.1875 0.75 0
0.1875 0.6875 0
0.21875 0.6875 0
0.1875 0.71875 0
0.21875 0.71875 0
0.21875 0.6875 0
0.25 0.6875 0
0.21875 0.71875 0
0.25 0.71875 0
0.1875 0.71875 0
0.21875 0.71875 0
0.1875 0.75 0
0.21875 0.75 0
0.21875 0.71875 0
0.25 0.71875 0
0.21875 0.75 0
0.25 0.75 0
0.25 0.5 0
0.28125 0.5 0
0.25 0.53125 0
0.28125 0.53125 0
0.28125 0.5 0
0.3125 0.5 0
0.28125 0.53125 0
0.3125 0.53125 0
0.25 0.53125 0
0.28125 0.53125 0
0.25 0.5625 0
0.28125 0.5625 0
0.28125 0.53125 0
0.3125 0.53125 0
0.28125 0.5625 0
0.3125 0.5625 0
0.3125 0.5 0
0.34375 0.5 0
0.3125 0.53125 0
0.34375 0.53125 0
0.34375 0.5 0
0.375 0.5 0
0.34375 0.53125 0
0.375 0.53125 0
0.3125 0.53125 0
0.34375 0.53125 0
0.3125 0.5625 0
0.34375 0.5625 0
0.34375 0.53125 0
0.375 0.53125 0
0.34375 0.5625 0
0.375 0.5625 0
0.25 0.5625 0
0.28125 0.5625 0
0.25 0.59375 0
0.28125 0.59375 0
0.28125 0.5625 0
0.3125 0.5625 0
0.28125 0.59375 0
0.3125 0.59375 0
0.25 0.59375 0
0.28125 0.59375 0
0.25 0.625 0
0.28125 0.625 0
0.28125 0.59375 0
0.3125 0.59375 0
0.28125 0.625 0
0.3125 0.625 0
0.3125 0.5625 0
0.34375 0.5625 0
0.3125 0.59375 0
0.34375 0.59375 0
0.34375 0.5625 0
0.375 0.5625 0
0.34375 0.59375 0
0.375 0.59375 0
0.3125 0.59375 0
0.34375 0.59375 0
0.3125 0.625 0
0.34375 0.625 0
0.34375 0.59375 0
0.375 0.59375 0
0.34375 0.625 0
0.375 0.625 0
0.375 0.5 0
0.40625 0.5 0
0.375 0.53125 0
0.40625 0.53125 0
0.40625 0.5 0
0.4375 0.5 0
0.40625 0.53125 0
0.4375 0.53125 0
0.375 0.53125 0
0.40625 0.53125 0
0.375 0.5625 0
0.40625 0.5625 0
0.40625 0.53125 0
0.4375 0.53125 0
0.40625 0.5625 0
0.4375 0.5625 0
0.4375 0.5 0
0.46875 0.5 0
0.4375 0.53125 0
0.46875 0.53125 0
0.46875 0.5 0
0.5 0.5 0
0.46875 0.53125 0
0.5 0.53125 0
0.4375 0.53125 0
0.46875 0.53125 0
0.4375 0.5625 0
0.46875 0.5625 0
0.46875 0.53125 0
0.5 0.53125 0
0.46875 0.5625 0
0.5 0.5625 0
0.375 0.5625 0
0.40625 0.5625 0
0.375 0.59375 0
0.40625 0.59375 0
0.40625 0.5625 0
0.4375 0.5625 0
0.40625 0.59375 0
0.4375 0.59375 0
0.375 0.59375 0
0.40625 0.59375 0
0.375 0.625 0
0.40625 0.625 0
0.40625 0.59375 0
0.4375 0.59375 0
0.40625 0.625 0
0.4375 0.625 0
0.4375 0.5625 0
0.46875 0.5625 0
0.4375 0.59375 0
0.46875 0.59375 0
0.46875 0.5625 0
0.5 0.5625 0
0.46875 0.59375 0
0.5 0.59375 0
0.4375 0.59375 0
0.46875 0.59375 0
0.4375 0.625 0
0.46875 0.625 0
0.46875 0.59375 0
0.5 0.59375 0
0.46875 0.625 0
0.5 0.625 0
0.25 0.625 0
0.28125 0.625 0
0.25 0.65625 0
0.28125 0.65625 0
0.28125 0.625 0
0.3125 0.625 0
0.28125 0.65625 0
0.3125 0.65625 0
0.25 0.65625 0
0.28125 0.65625 0
0.25 0.6875 0
0.28125 0.6875 0
0.28125 0.65625 0
0.3125 0.65625 0
0.28125 0.6875 0
0.3125 0.6875 0
0.3125 0.625 0
0.34375 0.625 0
0.3125 0.65625 0
0.34375 0.65625 0
0.34375 0.625 0
0.375 0.625 0
0.34375 0.65625 0
0.375 0.65625 0
0.3125 0.65625 0
0.34375 0.65625 0
0.3125 0.6875 0
0.34375 0.6875 0
0.34375 0.65625 0
0.375 0.65625 0
0.34375 0.6875 0
0.375 0.6875 0
0.25 0.6875 0
0.28125 0.6875 0
0.25 0.71875 0
0.28125 0.71875 0
0.28125 0.6875 0
0.3125 0.6875 0
0.28125 0.71875 0
0.3125 0.71875 0
0.25 0.71875 0
0.28125 0.71875 0
0.25 0.75 0
0.28125 0.75 0
0.28125 0.71875 0
0.3125 0.71875 0
0.28125 0.75 0
0.3125 0.75 0
0.3125 0.6875 0
0.34375 0.6875 0
0.3125 0.71875 0
0.34375 0.71875 0
0.34375 0.6875 0
0.375 0.6875 0
0.34375 0.71875 0
0.375 0.71875 0
0.3125 0.71875 0
0.34375 0.71875 0
0.3125 0.75 0
0.34375 0.75 0
0.34375 0.71875 0
0.375 0.71875 0
0.34375 0.75 0
0.375 0.75 0
0.375 0.625 0
0.40625 0.625 0
0.375 0.65625 0
0.40625 0.65625 0
0.40625 0.625 0
0.4375 0.625 0
0.40625 0.65625 0
0.4375 0.65625 0
0.375 0.65625 0
0.40625 0.65625 0
0.375 0.6875 0
0.40625 0.6875 0
0.40625 0.65625 0
0.4375 0.65625 0
0.40625 0.6875 0
0.4375 0.6875 0
0.4375 0.625 0
0.46875 0.625 0
0.4375 0.65625 0
0.46875 0.65625 0
0.46875 0.625 0
0.5 0.625 0
0.46875 0.65625 0
0.5 0.65625 0
0.4375 0.65625 0
0.46875 0.65625 0
0.4375 0.6875 0
0.46875 0.6875 0
0.46875 0.65625 0
0.5 0.65625 0
0.46875 0.6875 0
0.5 0.6875 0
0.375 0.6875 0
0.40625 0.6875 0
0.375 0.71875 0
0.40625 0.71875 0
0.40625 0.6875 0
0.4375 0.6875 0
0.40625 0.71875 0
0.4375 0.71875 0
0.375 0.71875 0
0.40625 0.71875 0
0.375 0.75 0
0.40625 0.75 0
0.40625 0.71875 0
0.4375 0.71875 0
0.40625 0.75 0
0.4375 0.75 0
0.4375 0.6875 0
0.46875 0.6875 0
0.4375 0.71875 0
0.46875 0.71875 0
0.46875 0.6875 0
0.5 0.6875 0
0.46875 0.71875 0
0.5 0.71875 0
0.4375 0.71875 0
0.46875 0.71875 0
0.4375 0.75 0
0.46875 0.75 0
0.46875 0.71875 0
0.5 0.71875 0
0.46875 0.75 0
0.5 0.75 0
0 0.75 0
0.03125 0.75 0
0 0.78125 0
0.03125 0.78125 0
0.03125 0.75 0
0.0625 0.75 0
0.03125 0.78125 0
0.0625 0.78125 0
0 0.78125 0
0.03125 0.78125 0
0 0.8125 0
0.03125 0.8125 0
0.03125 0.78125 0
0.0625 0.78125 0
0.03125 0.8125 0
0.0625 0.8125 0
0.0625 0.75 0
0.09375 0.75 0
0.0625 0.78125 0
0.09375 0.78125 0
0.09375 0.75 0
0.125 0.75 0
0.09375 0.78125 0
0.125 0.78125 0
0.0625 0.78125 0
0.09375 0.78125 0
0.0625 0.8125 0
0.09375 0.8125 0
0.09375 0.78125 0
0.125 0.78125 0
0.09375 0.8125 0
0.125 0.8125 0
0 0.8125 0
0.03125 0.8125 0
0 0.84375 0
0.03125 0.84375 0
0.03125 0.8125 0
0.0625 0.8125 0
0.03125 0.84375 0
0.0625 0.84375 0
0 0.84375 0
0.03125 0.84375 0
0 0.875 0
0.03125 0.875 0
0.03125 0.84375 0
0.0625 0.84375 0
0.03125 0.875 0
0.0625 0.875 0
0.0625 0.8125 0
0.09375 0.8125 0
0.0625 0.84375 0
0.09375 0.84375 0
0.09375 0.8125 0
0.125 0.8125 0
0.09375 0.84375 0
0.125 0.84375 0
0.0625 0.84375 0
0.09375 0.84375 0
0.0625 0.875 0
0.09375 0.875 0
0.09375 0.84375 0
0.125 0.84375 0
0.09375 0.875 0
0.125 0.875 0
0.125 0.75 0
0.15625 0.75 0
0.125 0.78125 0
0.15625 0.78125 0
0.15625 0.75 0
0.1875 0.75 0
0.15625 0.78125 0
0.1875 0.78125 0
0.125 0.78125 0
0.15625 0.78125 0
0.125 0.8125 0
0.15625 0.8125 0
0.15625 0.78125 0
0.1875 0.78125 0
0.15625 0.8125 0
0.1875 0.8125 0
0.1875 0.75 0
0.21875 0.75 0
0.1875 0.78125 0
0.21875 0.78125 0
0.21875 0.75 0
0.25 0.75 0
0.21875 0.78125 0
0.25 0.78125 0
0.1875 0.78125 0
0.21875 0.78125 0
0.1875 0.8125 0
0.21875 0.8125 0
0.21875 0.78125 0
0.25 0.78125 0
0.21875 0.8125 0
0.25 0.8125 0
0.125 0.8125 0
0.15625 0.8125 0
0.125 0.84375 0
0.15625 0.84375 0
0.15625 0.8125 0
[...]
POINT_DATA 4096
SCALARS State_InstatPDEProblemContainer_0 double 1
LOOKUP_TABLE default
-0.000500199 -0.000500195 -0.000535272 -0.000535308 -0.000500195 -0.000500186 -0.000535308 -0.000535416 -0.000535272 -0.000535308 -0.000570207 -0.000570279 -0.000535308 -0.000535416 -0.000570279 -0.000570499 -0.000500186 -0.000500169 -0.000535416 -0.000535602 -0.000500169 -0.000500145 -0.000535602 -0.000535873 -0.000535416 -0.000535602 -0.000570499 -0.000570875 -0.000535602 -0.000535873 -0.000570875 -0.00057142 -0.000570207 -0.000570279 -0.000604861 -0.000604965 -0.000570279 -0.000570499 -0.000604965 -0.000605282 -0.000604861 -0.000604965 -0.000639105 -0.000639235 -0.000604965 -0.000605282 -0.000639235 -0.000639628 -0.000570499 -0.000570875 -0.000605282 -0.000605822 -0.000570875 -0.00057142 -0.000605822 -0.000606603 -0.000605282 -0.000605822 -0.000639628 -0.000640297 -0.000605822 -0.000606603 -0.000640297 -0.000641261 -0.000500145 -0.000500113 -0.000535873 -0.000536241 -0.000500113 -0.000500073 -0.000536241 -0.000536723 -0.000535873 -0.000536241 -0.00057142 -0.000572158 -0.000536241 -0.000536723 -0.000572158 -0.000573122 -0.000500073 -0.000500022 -0.000536723 -0.000537346 -0.000500022 -0.00049996 -0.000537346 -0.000538149 -0.000536723 -0.000537346 -0.000573122 -0.000574358 -0.000537346 -0.000538149 -0.000574358 -0.000575935 -0.00057142 -0.000572158 -0.000606603 -0.000607654 -0.000572158 -0.000573122 -0.000607654 -0.000609017 -0.000606603 -0.000607654 -0.000641261 -0.000642549 -0.000607654 -0.000609017 -0.000642549 -0.000644203 -0.000573122 -0.000574358 -0.000609017 -0.000610748 -0.000574358 -0.000575935 -0.000610748 -0.000612928 -0.000609017 -0.000610748 -0.000644203 -0.000646281 -0.000610748 -0.000612928 -0.000646281 -0.000648855 -0.000639105 -0.000639235 -0.000672829 -0.000672977 -0.000639235 -0.000639628 -0.000672977 -0.000673424 -0.000672829 -0.000672977 -0.000705945 -0.000706104 -0.000672977 -0.000673424 -0.000706104 -0.000706582 -0.000639628 -0.000640297 -0.000673424 -0.000674182 -0.000640297 -0.000641261 -0.000674182 -0.000675268 -0.000673424 -0.000674182 -0.000706582 -0.000707388 -0.000674182 -0.000675268 -0.000707388 -0.000708537 -0.000705945 -0.000706104 -0.000738391 -0.000738553 -0.000706104 -0.000706582 -0.000738553 -0.000739039 -0.000738391 -0.000738553 -0.000770127 -0.000770285 -0.000738553 -0.000739039 -0.000770285 -0.000770761 -0.000706582 -0.000707388 -0.000739039 -0.000739856 -0.000707388 -0.000708537 -0.000739856 -0.000741013 -0.000739039 -0.000739856 -0.000770761 -0.000771556 -0.000739856 -0.000741013 -0.000771556 -0.000772675 -0.000641261 -0.000642549 -0.000675268 -0.000676709 -0.000642549 -0.000644203 -0.000676709 -0.000678541 -0.000675268 -0.000676709 -0.000708537 -0.000710048 -0.000676709 -0.000678541 -0.000710048 -0.000711947 -0.000644203 -0.000646281 -0.000678541 -0.000680809 -0.000646281 -0.000648855 -0.000680809 -0.00068357 -0.000678541 -0.000680809 -0.000711947 -0.000714266 -0.000680809 -0.00068357 -0.000714266 -0.000717036 -0.000708537 -0.000710048 -0.000741013 -0.000742521 -0.000710048 -0.000711947 -0.000742521 -0.000744396 -0.000741013 -0.000742521 -0.000772675 -0.000774121 -0.000742521 -0.000744396 -0.000774121 -0.000775898 -0.000711947 -0.000714266 -0.000744396 -0.00074665 -0.000714266 -0.000717036 -0.00074665 -0.000749295 -0.000744396 -0.00074665 -0.000775898 -0.000778005 -0.00074665 -0.000749295 -0.000778005 -0.000780433 -0.00049996 -0.000499884 -0.000538149 -0.00053919 -0.000499884 -0.000499791 -0.00053919 -0.000540557 -0.000538149 -0.00053919 -0.000575935 -0.000577951 -0.00053919 -0.000540557 -0.000577951 -0.000580555 -0.000499791 -0.000499675 -0.000540557 -0.000542399 -0.000499675 -0.000499528 -0.000542399 -0.000544967 -0.000540557 -0.000542399 -0.000580555 -0.000583973 -0.000542399 -0.000544967 -0.000583973 -0.000588558 -0.000575935 -0.000577951 -0.000612928 -0.000615667 -0.000577951 -0.000580555 -0.000615667 -0.000619121 -0.000612928 -0.000615667 -0.000648855 -0.000652022 -0.000615667 -0.000619121 -0.000652022 -0.000655901 -0.000580555 -0.000583973 -0.000619121 -0.000623499 -0.000583973 -0.000588558 -0.000623499 -0.000629082 -0.000619121 -0.000623499 -0.000655901 -0.000660631 -0.000623499 -0.000629082 -0.000660631 -0.000666342 -0.000499528 -0.000499332 -0.000544967 -0.000548737 -0.000499332 -0.000499049 -0.000548737 -0.000554731 -0.000544967 -0.000548737 -0.000588558 -0.000594885 -0.000548737 -0.000554731 -0.000594885 -0.000603813 -0.000499049 -0.000498519 -0.000554731 -0.000565295 -0.000498519 -0.000497773 -0.000565295 -0.000588364 -0.000554731 -0.000565295 -0.000603813 -0.000616641 -0.000565295 -0.000588364 -0.000616641 -0.000630172 -0.000588558 -0.000594885 -0.000629082 -0.000636195 -0.000594885 -0.000603813 -0.000636195 -0.000645105 -0.000629082 -0.000636195 -0.000666342 -0.000673099 -0.000636195 -0.000645105 -0.000673099 -0.000680698 -0.000603813 -0.000616641 -0.000645105 -0.000655147 -0.000616641 -0.000630172 -0.000655147 -0.00066545 -0.000645105 -0.000655147 -0.000680698 -0.000688667 -0.000655147 -0.00066545 -0.000688667 -0.000696325 -0.000648855 -0.000652022 -0.00068357 -0.000686889 -0.000652022 -0.000655901 -0.000686889 -0.000690833 -0.00068357 -0.000686889 -0.000717036 -0.000720289 -0.000686889 -0.000690833 -0.000720289 -0.000724044 -0.000655901 -0.000660631 -0.000690833 -0.000695458 -0.000660631 -0.000666342 -0.000695458 -0.000700773 -0.000690833 -0.000695458 -0.000724044 -0.000728291 -0.000695458 -0.000700773 -0.000728291 -0.000732969 -0.000717036 -0.000720289 -0.000749295 -0.000752332 -0.000720289 -0.000724044 -0.000752332 -0.000755743 -0.000749295 -0.000752332 -0.000780433 -0.000783163 -0.000752332 -0.000755743 -0.000783163 -0.000786157 -0.000724044 -0.000728291 -0.000755743 -0.000759483 -0.000728291 -0.000732969 -0.000759483 -0.00076346 -0.000755743 -0.000759483 -0.000786157 -0.000789348 -0.000759483 -0.00076346 -0.000789348 -0.000792645 -0.000666342 -0.000673099 -0.000700773 -0.00070668 -0.000673099 -0.000680698 -0.00070668 -0.000712937 -0.000700773 -0.00070668 -0.000732969 -0.000737939 -0.00070668 -0.000712937 -0.000737939 -0.000742978 -0.000680698 -0.000688667 -0.000712937 -0.00071916 -0.000688667 -0.000696325 -0.00071916 -0.000725014 -0.000712937 -0.00071916 -0.000742978 -0.000747833 -0.00071916 -0.000725014 -0.000747833 -0.000752308 -0.000732969 -0.000737939 -0.00076346 -0.000767537 -0.000737939 -0.000742978 -0.000767537 -0.00077154 -0.00076346 -0.000767537 -0.000792645 -0.000795925 -0.000767537 -0.00077154 -0.000795925 -0.000799058 -0.000742978 -0.000747833 -0.00077154 -0.000775297 -0.000747833 -0.000752308 -0.000775297 -0.0007787 -0.00077154 -0.000775297 -0.000799058 -0.000801929 -0.000775297 -0.0007787 -0.000801929 -0.000804475 -0.000770127 -0.000770285 -0.000801136 -0.000801286 -0.000770285 -0.000770761 -0.000801286 -0.000801734 -0.000801136 -0.000801286 -0.000831421 -0.000831557 -0.000801286 -0.000801734 -0.000831557 -0.000831966 -0.000770761 -0.000771556 -0.000801734 -0.000802481 -0.000771556 -0.000772675 -0.000802481 -0.000803526 -0.000801734 -0.000802481 -0.000831966 -0.000832645 -0.000802481 -0.000803526 -0.000832645 -0.000833588 -0.000831421 -0.000831557 -0.000861001 -0.000861121 -0.000831557 -0.000831966 -0.000861121 -0.00086148 -0.000861001 -0.000861121 -0.00088991 -0.000890012 -0.000861121 -0.00086148 -0.000890012 -0.000890315 -0.000831966 -0.000832645 -0.00086148 -0.000862075 -0.000832645 -0.000833588 -0.000862075 -0.000862898 -0.00086148 -0.000862075 -0.000890315 -0.000890814 -0.000862075 -0.000862898 -0.000890814 -0.000891502 -0.000772675 -0.000774121 -0.000803526 -0.000804865 -0.000774121 -0.000775898 -0.000804865 -0.000806492 -0.000803526 -0.000804865 -0.000833588 -0.000834788 -0.000804865 -0.000806492 -0.000834788 -0.000836231 -0.000775898 -0.000778005 -0.000806492 -0.000808395 -0.000778005 -0.000780433 -0.000808395 -0.000810553 -0.000806492 -0.000808395 -0.000836231 -0.000837898 -0.000808395 -0.000810553 -0.000837898 -0.000839759 -0.000833588 -0.000834788 -0.000862898 -0.000863937 -0.000834788 -0.000836231 -0.000863937 -0.000865175 -0.000862898 -0.000863937 -0.000891502 -0.000892364 -0.000863937 -0.000865175 -0.000892364 -0.000893384 -0.000836231 -0.000837898 -0.000865175 -0.000866588 -0.000837898 -0.000839759 -0.000866588 -0.000868145 -0.000865175 -0.000866588 -0.000893384 -0.000894536 -0.000866588 -0.000868145 -0.000894536 -0.000895789 -0.00088991 -0.000890012 -0.000918198 -0.000918278 -0.000890012 -0.000890315 -0.000918278 -0.000918518 -0.000918198 -0.000918278 -0.000945924 -0.000945981 -0.000918278 -0.000918518 -0.000945981 -0.00094615 -0.000890315 -0.000890814 -0.000918518 -0.000918912 -0.000890814 -0.000891502 -0.000918912 -0.000919452 -0.000918518 -0.000918912 -0.00094615 -0.000946427 -0.000918912 -0.000919452 -0.000946427 -0.000946807 -0.000945924 -0.000945981 -0.000973162 -0.000973192 -0.000945981 -0.00094615 -0.000973192 -0.000973283 -0.000973162 -0.000973192 -0.001 -0.001 -0.000973192 -0.000973283 -0.001 -0.001 -0.00094615 -0.000946427 -0.000973283 -0.00097343 -0.000946427 -0.000946807 -0.00097343 -0.000973632 -0.000973283 -0.00097343 -0.001 -0.001 -0.00097343 -0.000973632 -0.001 -0.001 -0.000891502 -0.000892364 -0.000919452 -0.000920126 -0.000892364 -0.000893384 -0.000920126 -0.000920917 -0.000919452 -0.000920126 -0.000946807 -0.000947279 -0.000920126 -0.000920917 -0.000947279 -0.000947829 -0.000893384 -0.000894536 -0.000920917 -0.000921803 -0.000894536 -0.000895789 -0.000921803 -0.000922756 -0.000920917 -0.000921803 -0.000947829 -0.000948441 -0.000921803 -0.000922756 -0.000948441 -0.000949094 -0.000946807 -0.000947279 -0.000973632 -0.000973882 -0.000947279 -0.000947829 -0.000973882 -0.000974173 -0.000973632 -0.000973882 -0.001 -0.001 -0.000973882 -0.000974173 -0.001 -0.001 -0.000947829 -0.000948441 -0.000974173 -0.000974494 -0.000948441 -0.000949094 -0.000974494 -0.000974835 -0.000974173 -0.000974494 -0.001 -0.001 -0.000974494 -0.000974835 -0.001 -0.001 -0.000780433 -0.000783163 -0.000810553 -0.000812934 -0.000783163 -0.000786157 -0.000812934 -0.000815486 -0.000810553 -0.000812934 -0.000839759 -0.000841776 -0.000812934 -0.000815486 -0.000841776 -0.000843896 -0.000786157 -0.000789348 -0.000815486 -0.000818141 -0.000789348 -0.000792645 -0.000818141 -0.000820813 -0.000815486 -0.000818141 -0.000843896 -0.000846052 -0.000818141 -0.000820813 -0.000846052 -0.000848168 -0.000839759 -0.000841776 -0.000868145 -0.000869804 -0.000841776 -0.000843896 -0.000869804 -0.000871515 -0.000868145 -0.000869804 -0.000895789 -0.000897105 -0.000869804 -0.000871515 -0.000897105 -0.000898438 -0.000843896 -0.000846052 -0.000871515 -0.000873219 -0.000846052 -0.000848168 -0.000873219 -0.000874851 -0.000871515 -0.000873219 -0.000898438 -0.000899738 -0.000873219 -0.000874851 -0.000899738 -0.000900952 -0.000792645 -0.000795925 -0.000820813 -0.000823401 -0.000795925 -0.000799058 -0.000823401 -0.000825809 -0.000820813 -0.000823401 -0.000848168 -0.000850166 -0.000823401 -0.000825809 -0.000850166 -0.000851972 -0.000799058 -0.000801929 -0.000825809 -0.000827959 -0.000801929 -0.000804475 -0.000827959 -0.000829814 -0.000825809 -0.000827959 -0.000851972 -0.000853534 -0.000827959 -0.000829814 -0.000853534 -0.000854833 -0.000848168 -0.000850166 -0.000874851 -0.000876349 -0.000850166 -0.000851972 -0.000876349 -0.000877659 -0.000874851 -0.000876349 -0.000900952 -0.000902031 -0.000876349 -0.000877659 -0.000902031 -0.000902937 -0.000851972 -0.000853534 -0.000877659 -0.000878746 -0.000853534 -0.000854833 -0.000878746 -0.000879599 -0.000877659 -0.000878746 -0.000902937 -0.000903645 -0.000878746 -0.000879599 -0.000903645 -0.00090415 -0.000895789 -0.000897105 -0.000922756 -0.000923744 -0.000897105 -0.000898438 -0.000923744 -0.000924727 -0.000922756 -0.000923744 -0.000949094 -0.000949761 -0.000923744 -0.000924727 -0.000949761 -0.000950416 -0.000898438 -0.000899738 -0.000924727 -0.000925666 -0.000899738 -0.000900952 -0.000925666 -0.000926519 -0.000924727 -0.000925666 -0.000950416 -0.000951028 -0.000925666 -0.000926519 -0.000951028 -0.000951569 -0.000949094 -0.000949761 -0.000974835 -0.00097518 -0.000949761 -0.000950416 -0.00097518 -0.000975513 -0.000974835 -0.00097518 -0.001 -0.001 -0.00097518 -0.000975513 -0.001 -0.001 -0.000950416 -0.000951028 -0.000975513 -0.000975819 -0.000951028 -0.000951569 -0.000975819 -0.000976081 -0.000975513 -0.000975819 -0.001 -0.001 -0.000975819 -0.000976081 -0.001 -0.001 -0.000900952 -0.000902031 -0.000926519 -0.000927251 -0.000902031 -0.000902937 -0.000927251 -0.000927832 -0.000926519 -0.000927251 -0.000951569 -0.000952013 -0.000927251 -0.000927832 -0.000952013 -0.00095234 -0.000902937 -0.000903645 -0.000927832 -0.000928247 -0.000903645 -0.00090415 -0.000928247 -0.000928495 -0.000927832 -0.000928247 -0.00095234 -0.000952542 -0.000928247 -0.000928495 -0.000952542 -0.000952618 -0.000951569 -0.000952013 -0.000976081 -0.000976285 -0.000952013 -0.00095234 -0.000976285 -0.000976422 -0.000976081 -0.000976285 -0.001 -0.001 -0.000976285 -0.000976422 -0.001 -0.001 -0.00095234 -0.000952542 -0.000976422 -0.000976485 -0.000952542 -0.000952618 -0.000976485 -0.000976477 -0.000976422 -0.000976485 -0.001 -0.001 -0.000976485 -0.000976477 -0.001 -0.001 -0.000497773 -0.000574462 -0.000588364 -0.000606951 -0.000574462 -0.000619929 -0.000606951 -0.000632491 -0.000588364 -0.000606951 -0.000630172 -0.00064424 -0.000606951 -0.000632491 -0.00064424 -0.000657768 -0.000619929 -0.000650787 -0.000632491 -0.000656524 -0.000650787 -0.000674119 -0.000656524 -0.000677036 -0.000632491 -0.000656524 -0.000657768 -0.000673234 -0.000656524 -0.000677036 -0.000673234 -0.000688599 -0.000630172 -0.00064424 -0.00066545 -0.000674966 -0.00064424 -0.000657768 -0.000674966 -0.000684536 -0.00066545 -0.000674966 -0.000696325 -0.000703462 -0.000674966 -0.000684536 -0.000703462 -0.000710339 -0.000657768 -0.000673234 -0.000684536 -0.000694677 -0.000673234 -0.000688599 -0.000694677 -0.000705503 -0.000684536 -0.000694677 -0.000710339 -0.000717522 -0.000694677 -0.000705503 -0.000717522 -0.000725161 -0.000674119 -0.000692695 -0.000677036 -0.000694277 -0.000692695 -0.000707885 -0.000694277 -0.00070878 -0.000677036 -0.000694277 -0.000688599 -0.000702738 -0.000694277 -0.00070878 -0.000702738 -0.000715302 -0.000707885 -0.000720466 -0.00070878 -0.000721001 -0.000720466 -0.000730932 -0.000721001 -0.000731289 -0.00070878 -0.000721001 -0.000715302 -0.000726267 -0.000721001 -0.000731289 -0.000726267 -0.00073572 -0.000688599 -0.000702738 -0.000705503 -0.00071626 -0.000702738 -0.000715302 -0.00071626 -0.000726394 -0.000705503 -0.00071626 -0.000725161 -0.000733067 -0.00071626 -0.000726394 -0.000733067 -0.000740867 -0.000715302 -0.000726267 -0.000726394 -0.000735618 -0.000726267 -0.00073572 -0.000735618 -0.000743815 -0.000726394 -0.000735618 -0.000740867 -0.000748253 -0.000735618 -0.000743815 -0.000748253 -0.000755025 -0.000696325 -0.000703462 -0.000725014 -0.000730388 -0.000703462 -0.000710339 -0.000730388 -0.000735504 -0.000725014 -0.000730388 -0.000752308 -0.000756376 -0.000730388 -0.000735504 -0.000756376 -0.000760178 -0.000710339 -0.000717522 -0.000735504 -0.000740687 -0.000717522 -0.000725161 -0.000740687 -0.000746156 -0.000735504 -0.000740687 -0.000760178 -0.000763946 -0.000740687 -0.000746156 -0.000763946 -0.000767857 -0.000752308 -0.000756376 -0.0007787 -0.000781745 -0.000756376 -0.000760178 -0.000781745 -0.000784538 -0.0007787 -0.000781745 -0.000804475 -0.000806706 -0.000781745 -0.000784538 -0.000806706 -0.000808702 -0.000760178 -0.000763946 -0.000784538 -0.000787241 -0.000763946 -0.000767857 -0.000787241 -0.000789999 -0.000784538 -0.000787241 -0.000808702 -0.000810582 -0.000787241 -0.000789999 -0.000810582 -0.000812461 -0.000725161 -0.000733067 -0.000746156 -0.00075189 -0.000733067 -0.000740867 -0.00075189 -0.000757714 -0.000746156 -0.00075189 -0.000767857 -0.000771969 -0.00075189 -0.000757714 -0.000771969 -0.000776215 -0.000740867 -0.000748253 -0.000757714 -0.000763409 -0.000748253 -0.000755025 -0.000763409 -0.000768783 -0.000757714 -0.000763409 -0.000776215 -0.000780467 -0.000763409 -0.000768783 -0.000780467 -0.000784579 -0.000767857 -0.000771969 -0.000789999 -0.000792886 -0.000771969 -0.000776215 -0.000792886 -0.000795898 -0.000789999 -0.000792886 -0.000812461 -0.000814415 -0.000792886 -0.000795898 -0.000814415 -0.000816468 -0.000776215 -0.000780467 -0.000795898 -0.000798969 -0.000780467 -0.000784579 -0.000798969 -0.000802002 -0.000795898 -0.000798969 -0.000816468 -0.000818593 -0.000798969 -0.000802002 -0.000818593 -0.000820736 -0.000730932 -0.000739625 -0.000731289 -0.000739908 -0.000739625 -0.000746787 -0.000739908 -0.000747057 -0.000731289 -0.000739908 -0.00073572 -0.000743773 -0.000739908 -0.000747057 -0.000743773 -0.000750535 -0.000746787 -0.000752599 -0.000747057 -0.000752889 -0.000752599 -0.000757196 -0.000752889 -0.00075752 -0.000747057 -0.000752889 -0.000750535 -0.000756102 -0.000752889 -0.00075752 -0.000756102 -0.000760554 -0.00073572 -0.000743773 -0.000743815 -0.000750954 -0.000743773 -0.000750535 -0.000750954 -0.000757049 -0.000743815 -0.000750954 -0.000755025 -0.00076107 -0.000750954 -0.000757049 -0.00076107 -0.000766329 -0.000750535 -0.000756102 -0.000757049 -0.000762129 -0.000756102 -0.000760554 -0.000762129 -0.000766229 -0.000757049 -0.000762129 -0.000766329 -0.000770776 -0.000762129 -0.000766229 -0.000770776 -0.000774404 -0.000757196 -0.000760677 -0.00075752 -0.000761039 -0.000760677 -0.000763114 -0.000761039 -0.000763508 -0.00075752 -0.000761039 -0.000760554 -0.000763953 -0.000761039 -0.000763508 -0.000763953 -0.000766348 -0.000763114 -0.000764558 -0.000763508 -0.000764973 -0.000764558 -0.000765036 -0.000764973 -0.000765459 -0.000763508 -0.000764973 -0.000766348 -0.000767772 -0.000764973 -0.000765459 -0.000767772 -0.000768245 -0.000760554 -0.000763953 -0.000766229 -0.000769381 -0.000763953 -0.000766348 -0.000769381 -0.000771612 -0.000766229 -0.000769381 -0.000774404 -0.000777216 -0.000769381 -0.000771612 -0.000777216 -0.000779219 -0.000766348 -0.000767772 -0.000771612 -0.000772943 -0.000767772 -0.000768245 -0.000772943 -0.000773385 -0.000771612 -0.000772943 -0.000779219 -0.000780418 -0.000772943 -0.000773385 -0.000780418 -0.000780817 -0.000755025 -0.00076107 -0.000768783 -0.000773697 -0.00076107 -0.000766329 -0.000773697 -0.000778056 -0.000768783 -0.000773697 -0.000784579 -0.000788425 -0.000773697 -0.000778056 -0.000788425 -0.000791903 -0.000766329 -0.000770776 -0.000778056 -0.000781799 -0.000770776 -0.000774404 -0.000781799 -0.000784891 -0.000778056 -0.000781799 -0.000791903 -0.000794938 -0.000781799 -0.000784891 -0.000794938 -0.000797476 -0.000784579 -0.000788425 -0.000802002 -0.000804899 -0.000788425 -0.000791903 -0.000804899 -0.000807568 -0.000802002 -0.000804899 -0.000820736 -0.000822824 -0.000804899 -0.000807568 -0.000822824 -0.000824784 -0.000791903 -0.000794938 -0.000807568 -0.000809934 -0.000794938 -0.000797476 -0.000809934 -0.000811939 -0.000807568 -0.000809934 -0.000824784 -0.000826552 -0.000809934 -0.000811939 -0.000826552 -0.000828071 -0.000774404 -0.000777216 -0.000784891 -0.000787309 -0.000777216 -0.000779219 -0.000787309 -0.000789042 -0.000784891 -0.000787309 -0.000797476 -0.00079948 -0.000787309 -0.000789042 -0.00079948 -0.000800927 -0.000779219 -0.000780418 -0.000789042 -0.000790084 -0.000780418 -0.000780817 -0.000790084 -0.000790432 -0.000789042 -0.000790084 -0.000800927 -0.0008018 -0.000790084 -0.000790432 -0.0008018 -0.000802092 -0.000797476 -0.00079948 -0.000811939 -0.000813538 -0.00079948 -0.000800927 -0.000813538 -0.000814702 -0.000811939 -0.000813538 -0.000828071 -0.000829296 -0.000813538 -0.000814702 -0.000829296 -0.000830194 -0.000800927 -0.0008018 -0.000814702 -0.000815407 -0.0008018 -0.000802092 -0.000815407 -0.000815644 -0.000814702 -0.000815407 -0.000830194 -0.000830741 -0.000815407 -0.000815644 -0.000830741 -0.000830925 -0.000804475 -0.000806706 -0.000829814 -0.000831391 -0.000806706 -0.000808702 -0.000831391 -0.000832751 -0.000829814 -0.000831391 -0.000854833 -0.000855884 -0.000831391 -0.000832751 -0.000855884 -0.000856739 -0.000808702 -0.000810582 -0.000832751