# vtk DataFile Version 3.0
#This file was generated by the deal.II library on 2018/7/10 at 10:46:54
ASCII
DATASET UNSTRUCTURED_GRID

POINTS 4096 double
0 0.5 0
0.03125 0.5 0
0 0.53125 0
0.03125 0.53125 0
0.03125 0.5 0
0.0625 0.5 0
0.03125 0.53125 0
0.0625 0.53125 0
0 0.53125 0
0.03125 0.53125 0
0 0.5625 0
0.03125 0.5625 0
0.03125 0.53125 0
0.0625 0.53125 0
0.03125 0.5625 0
0.0625 0.5625 0
0.0625 0.5 0
0.09375 0.5 0
0.0625 0.53125 0
0.09375 0.53125 0
0.09375 0.5 0
0.125 0.5 0
0.09375 0.53125 0
0.125 0.53125 0
0.0625 0.53125 0
0.09375 0.53125 0
0.0625 0.5625 0
0.09375 0.5625 0
0.09375 0.53125 0
0.125 0.53125 0
0.09375 0.5625 0
0.125 0.5625 0
0 0.5625 0
0.03125 0.5625 0
0 0.59375 0
0.03125 0.59375 0
0.03125 0.5625 0
0.0625 0.5625 0
0.03125 0.59375 0
0.0625 0.59375 0
0 0.59375 0
0.03125 0.59375 0
0 0.625 0
0.03125 0.625 0
0.03125 0.59375 0
0.0625 0.59375 0
0.03125 0.625 0
0.0625 0.625 0
0.0625 0.5625 0
0.09375 0.5625 0
0.0625 0.59375 0
0.09375 0.59375 0
0.09375 0.5625 0
0.125 0.5625 0
0.09375 0.59375 0
0.125 0.59375 0
0.0625 0.59375 0
0.09375 0.59375 0
0.0625 0.625 0
0.09375 0.625 0
0.09375 0.59375 0
0.125 0.59375 0
0.09375 0.625 0
0.125 0.625 0
0.125 0.5 0
0.15625 0.5 0
0.125 0.53125 0
0.15625 0.53125 0
0.15625 0.5 0
0.1875 0.5 0
0.15625 0.53125 0
0.1875 0.53125 0
0.125 0.53125 0
0.15625 0.53125 0
0.125 0.5625 0
0.15625 0.5625 0
0.15625 0.53125 0
0.1875 0.53125 0
0.15625 0.5625 0
0.1875 0.5625 0
0.1875 0.5 0
0.21875 0.5 0
0.1875 0.53125 0
0.21875 0.53125 0
0.21875 0.5 0
0.25 0.5 0
0.21875 0.53125 0
0.25 0.53125 0
0.1875 0.53125 0
0.21875 0.53125 0
0.1875 0.5625 0
0.21875 0.5625 0
0.21875 0.53125 0
0.25 0.53125 0
0.21875 0.5625 0
0.25 0.5625 0
0.125 0.5625 0
0.15625 0.5625 0
0.125 0.59375 0
0.15625 0.59375 0
0.15625 0.5625 0
0.1875 0.5625 0
0.15625 0.59375 0
0.1875 0.59375 0
0.125 0.59375 0
0.15625 0.59375 0
0.125 0.625 0
0.15625 0.625 0
0.15625 0.59375 0
0.1875 0.59375 0
0.15625 0.625 0
0.1875 0.625 0
0.1875 0.5625 0
0.21875 0.5625 0
0.1875 0.59375 0
0.21875 0.59375 0
0.21875 0.5625 0
0.25 0.5625 0
0.21875 0.59375 0
0.25 0.59375 0
0.1875 0.59375 0
0.21875 0.59375 0
0.1875 0.625 0
0.21875 0.625 0
0.21875 0.59375 0
0.25 0.59375 0
0.21875 0.625 0
0.25 0.625 0
0 0.625 0
0.03125 0.625 0
0 0.65625 0
0.03125 0.65625 0
0.03125 0.625 0
0.0625 0.625 0
0.03125 0.65625 0
0.0625 0.65625 0
0 0.65625 0
0.03125 0.65625 0
0 0.6875 0
0.03125 0.6875 0
0.03125 0.65625 0
0.0625 0.65625 0
0.03125 0.6875 0
0.0625 0.6875 0
0.0625 0.625 0
0.09375 0.625 0
0.0625 0.65625 0
0.09375 0.65625 0
0.09375 0.625 0
0.125 0.625 0
0.09375 0.65625 0
0.125 0.65625 0
0.0625 0.65625 0
0.09375 0.65625 0
0.0625 0.6875 0
0.09375 0.6875 0
0.09375 0.65625 0
0.125 0.65625 0
0.09375 0.6875 0
0.125 0.6875 0
0 0.6875 0
0.03125 0.6875 0
0 0.71875 0
0.03125 0.71875 0
0.03125 0.6875 0
0.0625 0.6875 0
0.03125 0.71875 0
0.0625 0.71875 0
0 0.71875 0
0.03125 0.71875 0
0 0.75 0
0.03125 0.75 0
0.03125 0.71875 0
0.0625 0.71875 0
0.03125 0.75 0
0.0625 0.75 0
0.0625 0.6875 0
0.09375 0.6875 0
0.0625 0.71875 0
0.09375 0.71875 0
0.09375 0.6875 0
0.125 0.6875 0
0.09375 0.71875 0
0.125 0.71875 0
0.0625 0.71875 0
0.09375 0.71875 0
0.0625 0.75 0
0.09375 0.75 0
0.09375 0.71875 0
0.125 0.71875 0
0.09375 0.75 0
0.125 0.75 0
0.125 0.625 0
0.15625 0.625 0
0.125 0.65625 0
0.15625 0.65625 0
0.15625 0.625 0
0.1875 0.625 0
0.15625 0.65625 0
0.1875 0.65625 0
0.125 0.65625 0
0.15625 0.65625 0
0.125 0.6875 0
0.15625 0.6875 0
0.15625 0.65625 0
0.1875 0.65625 0
0.15625 0.6875 0
0.1875 0.6875 0
0.1875 0.625 0
0.21875 0.625 0
0.1875 0.65625 0
0.21875 0.65625 0
0.21875 0.625 0
0.25 0.625 0
0.21875 0.65625 0
0.25 0.65625 0
0.1875 0.65625 0
0.21875 0.65625 0
0.1875 0.6875 0
0.21875 0.6875 0
0.21875 0.65625 0
0.25 0.65625 0
0.21875 0.6875 0
0.25 0.6875 0
0.125 0.6875 0
0.15625 0.6875 0
0.125 0.71875 0
0.15625 0.71875 0
0.15625 0.6875 0
0.1875 0.6875 0
0.15625 0.71875 0
0.1875 0.71875 0
0.125 0.71875 0
0.15625 0.71875 0
0.125 0.75 0
0.15625 0.75 0
0.15625 0.71875 0
0.1875 0.71875 0
0.15625 0.75 0
0.1875 0.75 0
0.1875 0.6875 0
0.21875 0.6875 0
0.1875 0.71875 0
0.21875 0.71875 0
0.21875 0.6875 0
0.25 0.6875 0
0.21875 0.71875 0
0.25 0.71875 0
0.1875 0.71875 0
0.21875 0.71875 0
0.1875 0.75 0
0.21875 0.75 0
0.21875 0.71875 0
0.25 0.71875 0
0.21875 0.75 0
0.25 0.75 0
0.25 0.5 0
0.28125 0.5 0
0.25 0.53125 0
0.28125 0.53125 0
0.28125 0.5 0
0.3125 0.5 0
0.28125 0.53125 0
0.3125 0.53125 0
0.25 0.53125 0
0.28125 0.53125 0
0.25 0.5625 0
0.28125 0.5625 0
0.28125 0.53125 0
0.3125 0.53125 0
0.28125 0.5625 0
0.3125 0.5625 0
0.3125 0.5 0
0.34375 0.5 0
0.3125 0.53125 0
0.34375 0.53125 0
0.34375 0.5 0
0.375 0.5 0
0.34375 0.53125 0
0.375 0.53125 0
0.3125 0.53125 0
0.34375 0.53125 0
0.3125 0.5625 0
0.34375 0.5625 0
0.34375 0.53125 0
0.375 0.53125 0
0.34375 0.5625 0
0.375 0.5625 0
0.25 0.5625 0
0.28125 0.5625 0
0.25 0.59375 0
0.28125 0.59375 0
0.28125 0.5625 0
0.3125 0.5625 0
0.28125 0.59375 0
0.3125 0.59375 0
0.25 0.59375 0
0.28125 0.59375 0
0.25 0.625 0
0.28125 0.625 0
0.28125 0.59375 0
0.3125 0.59375 0
0.28125 0.625 0
0.3125 0.625 0
0.3125 0.5625 0
0.34375 0.5625 0
0.3125 0.59375 0
0.34375 0.59375 0
0.34375 0.5625 0
0.375 0.5625 0
0.34375 0.59375 0
0.375 0.59375 0
0.3125 0.59375 0
0.34375 0.59375 0
0.3125 0.625 0
0.34375 0.625 0
0.34375 0.59375 0
0.375 0.59375 0
0.34375 0.625 0
0.375 0.625 0
0.375 0.5 0
0.40625 0.5 0
0.375 0.53125 0
0.40625 0.53125 0
0.40625 0.5 0
0.4375 0.5 0
0.40625 0.53125 0
0.4375 0.53125 0
0.375 0.53125 0
0.40625 0.53125 0
0.375 0.5625 0
0.40625 0.5625 0
0.40625 0.53125 0
0.4375 0.53125 0
0.40625 0.5625 0
0.4375 0.5625 0
0.4375 0.5 0
0.46875 0.5 0
0.4375 0.53125 0
0.46875 0.53125 0
0.46875 0.5 0
0.5 0.5 0
0.46875 0.53125 0
0.5 0.53125 0
0.4375 0.53125 0
0.46875 0.53125 0
0.4375 0.5625 0
0.46875 0.5625 0
0.46875 0.53125 0
0.5 0.53125 0
0.46875 0.5625 0
0.5 0.5625 0
0.375 0.5625 0
0.40625 0.5625 0
0.375 0.59375 0
0.40625 0.59375 0
0.40625 0.5625 0
0.4375 0.5625 0
0.40625 0.59375 0
0.4375 0.59375 0
0.375 0.59375 0
0.40625 0.59375 0
0.375 0.625 0
0.40625 0.625 0
0.40625 0.59375 0
0.4375 0.59375 0
0.40625 0.625 0
0.4375 0.625 0
0.4375 0.5625 0
0.46875 0.5625 0
0.4375 0.59375 0
0.46875 0.59375 0
0.46875 0.5625 0
0.5 0.5625 0
0.46875 0.59375 0
0.5 0.59375 0
0.4375 0.59375 0
0.46875 0.59375 0
0.4375 0.625 0
0.46875 0.625 0
0.46875 0.59375 0
0.5 0.59375 0
0.46875 0.625 0
0.5 0.625 0
0.25 0.625 0
0.28125 0.625 0
0.25 0.65625 0
0.28125 0.65625 0
0.28125 0.625 0
0.3125 0.625 0
0.28125 0.65625 0
0.3125 0.65625 0
0.25 0.65625 0
0.28125 0.65625 0
0.25 0.6875 0
0.28125 0.6875 0
0.28125 0.65625 0
0.3125 0.65625 0
0.28125 0.6875 0
0.3125 0.6875 0
0.3125 0.625 0
0.34375 0.625 0
0.3125 0.65625 0
0.34375 0.65625 0
0.34375 0.625 0
0.375 0.625 0
0.34375 0.65625 0
0.375 0.65625 0
0.3125 0.65625 0
0.34375 0.65625 0
0.3125 0.6875 0
0.34375 0.6875 0
0.34375 0.65625 0
0.375 0.65625 0
0.34375 0.6875 0
0.375 0.6875 0
0.25 0.6875 0
0.28125 0.6875 0
0.25 0.71875 0
0.28125 0.71875 0
0.28125 0.6875 0
0.3125 0.6875 0
0.28125 0.71875 0
0.3125 0.71875 0
0.25 0.71875 0
0.28125 0.71875 0
0.25 0.75 0
0.28125 0.75 0
0.28125 0.71875 0
0.3125 0.71875 0
0.28125 0.75 0
0.3125 0.75 0
0.3125 0.6875 0
0.34375 0.6875 0
0.3125 0.71875 0
0.34375 0.71875 0
0.34375 0.6875 0
0.375 0.6875 0
0.34375 0.71875 0
0.375 0.71875 0
0.3125 0.71875 0
0.34375 0.71875 0
0.3125 0.75 0
0.34375 0.75 0
0.34375 0.71875 0
0.375 0.71875 0
0.34375 0.75 0
0.375 0.75 0
0.375 0.625 0
0.40625 0.625 0
0.375 0.65625 0
0.40625 0.65625 0
0.40625 0.625 0
0.4375 0.625 0
0.40625 0.65625 0
0.4375 0.65625 0
0.375 0.65625 0
0.40625 0.65625 0
0.375 0.6875 0
0.40625 0.6875 0
0.40625 0.65625 0
0.4375 0.65625 0
0.40625 0.6875 0
0.4375 0.6875 0
0.4375 0.625 0
0.46875 0.625 0
0.4375 0.65625 0
0.46875 0.65625 0
0.46875 0.625 0
0.5 0.625 0
0.46875 0.65625 0
0.5 0.65625 0
0.4375 0.65625 0
0.46875 0.65625 0
0.4375 0.6875 0
0.46875 0.6875 0
0.46875 0.65625 0
0.5 0.65625 0
0.46875 0.6875 0
0.5 0.6875 0
0.375 0.6875 0
0.40625 0.6875 0
0.375 0.71875 0
0.40625 0.71875 0
0.40625 0.6875 0
0.4375 0.6875 0
0.40625 0.71875 0
0.4375 0.71875 0
0.375 0.71875 0
0.40625 0.71875 0
0.375 0.75 0
0.40625 0.75 0
0.40625 0.71875 0
0.4375 0.71875 0
0.40625 0.75 0
0.4375 0.75 0
0.4375 0.6875 0
0.46875 0.6875 0
0.4375 0.71875 0
0.46875 0.71875 0
0.46875 0.6875 0
0.5 0.6875 0
0.46875 0.71875 0
0.5 0.71875 0
0.4375 0.71875 0
0.46875 0.71875 0
0.4375 0.75 0
0.46875 0.75 0
0.46875 0.71875 0
0.5 0.71875 0
0.46875 0.75 0
0.5 0.75 0
0 0.75 0
0.03125 0.75 0
0 0.78125 0
0.03125 0.78125 0
0.03125 0.75 0
0.0625 0.75 0
0.03125 0.78125 0
0.0625 0.78125 0
0 0.78125 0
0.03125 0.78125 0
0 0.8125 0
0.03125 0.8125 0
0.03125 0.78125 0
0.0625 0.78125 0
0.03125 0.8125 0
0.0625 0.8125 0
0.0625 0.75 0
0.09375 0.75 0
0.0625 0.78125 0
0.09375 0.78125 0
0.09375 0.75 0
0.125 0.75 0
0.09375 0.78125 0
0.125 0.78125 0
0.0625 0.78125 0
0.09375 0.78125 0
0.0625 0.8125 0
0.09375 0.8125 0
0.09375 0.78125 0
0.125 0.78125 0
0.09375 0.8125 0
0.125 0.8125 0
0 0.8125 0
0.03125 0.8125 0
0 0.84375 0
0.03125 0.84375 0
0.03125 0.8125 0
0.0625 0.8125 0
0.03125 0.84375 0
0.0625 0.84375 0
0 0.84375 0
0.03125 0.84375 0
0 0.875 0
0.03125 0.875 0
0.03125 0.84375 0
0.0625 0.84375 0
0.03125 0.875 0
0.0625 0.875 0
0.0625 0.8125 0
0.09375 0.8125 0
0.0625 0.84375 0
0.09375 0.84375 0
0.09375 0.8125 0
0.125 0.8125 0
0.09375 0.84375 0
0.125 0.84375 0
0.0625 0.84375 0
0.09375 0.84375 0
0.0625 0.875 0
0.09375 0.875 0
0.09375 0.84375 0
0.125 0.84375 0
0.09375 0.875 0
0.125 0.875 0
0.125 0.75 0
0.15625 0.75 0
0.125 0.78125 0
0.15625 0.78125 0
0.15625 0.75 0
0.1875 0.75 0
0.15625 0.78125 0
0.1875 0.78125 0
0.125 0.78125 0
0.15625 0.78125 0
0.125 0.8125 0
0.15625 0.8125 0
0.15625 0.78125 0
0.1875 0.78125 0
0.15625 0.8125 0
0.1875 0.8125 0
0.1875 0.75 0
0.21875 0.75 0
0.1875 0.78125 0
0.21875 0.78125 0
0.21875 0.75 0
0.25 0.75 0
0.21875 0.78125 0
0.25 0.78125 0
0.1875 0.78125 0
0.21875 0.78125 0
0.1875 0.8125 0
0.21875 0.8125 0
0.21875 0.78125 0
0.25 0.78125 0
0.21875 0.8125 0
0.25 0.8125 0
0.125 0.8125 0
0.15625 0.8125 0
0.125 0.84375 0
0.15625 0.84375 0
0.15625 0.8125 0
[...]
POINT_DATA 4096
SCALARS State_InstatPDEProblemContainer_0 double 1
LOOKUP_TABLE default
-0.000902307 -0.000902207 -0.000965391 -0.000965362 -0.000902207 -0.000902104 -0.000965362 -0.000965473 -0.000965391 -0.000965362 -0.00102821 -0.00102824 -0.000965362 -0.000965473 -0.00102824 -0.00102856 -0.000902104 -0.000901998 -0.000965473 -0.00096573 -0.000901998 -0.000901886 -0.00096573 -0.000966147 -0.000965473 -0.00096573 -0.00102856 -0.00102915 -0.00096573 -0.000966147 -0.00102915 -0.00103006 -0.00102821 -0.00102824 -0.0010905 -0.0010906 -0.00102824 -0.00102856 -0.0010906 -0.00109108 -0.0010905 -0.0010906 -0.00115204 -0.00115218 -0.0010906 -0.00109108 -0.00115218 -0.00115281 -0.00102856 -0.00102915 -0.00109108 -0.00109197 -0.00102915 -0.00103006 -0.00109197 -0.00109331 -0.00109108 -0.00109197 -0.00115281 -0.00115394 -0.00109197 -0.00109331 -0.00115394 -0.00115559 -0.000901886 -0.000901767 -0.000966147 -0.000966745 -0.000901767 -0.000901639 -0.000966745 -0.000967555 -0.000966147 -0.000966745 -0.00103006 -0.00103132 -0.000966745 -0.000967555 -0.00103132 -0.00103299 -0.000901639 -0.0009015 -0.000967555 -0.000968624 -0.0009015 -0.000901346 -0.000968624 -0.000970023 -0.000967555 -0.000968624 -0.00103299 -0.00103516 -0.000968624 -0.000970023 -0.00103516 -0.00103794 -0.00103006 -0.00103132 -0.00109331 -0.00109513 -0.00103132 -0.00103299 -0.00109513 -0.00109751 -0.00109331 -0.00109513 -0.00115559 -0.00115784 -0.00109513 -0.00109751 -0.00115784 -0.00116074 -0.00103299 -0.00103516 -0.00109751 -0.00110056 -0.00103516 -0.00103794 -0.00110056 -0.00110442 -0.00109751 -0.00110056 -0.00116074 -0.00116441 -0.00110056 -0.00110442 -0.00116441 -0.00116897 -0.00115204 -0.00115218 -0.00121263 -0.00121281 -0.00115218 -0.00115281 -0.00121281 -0.00121354 -0.00121263 -0.00121281 -0.00127212 -0.00127233 -0.00121281 -0.00121354 -0.00127233 -0.00127311 -0.00115281 -0.00115394 -0.00121354 -0.00121482 -0.00115394 -0.00115559 -0.00121482 -0.0012167 -0.00121354 -0.00121482 -0.00127311 -0.00127449 -0.00121482 -0.0012167 -0.00127449 -0.00127648 -0.00127212 -0.00127233 -0.0013304 -0.00133062 -0.00127233 -0.00127311 -0.00133062 -0.00133142 -0.0013304 -0.00133062 -0.0013874 -0.00138762 -0.00133062 -0.00133142 -0.00138762 -0.0013884 -0.00127311 -0.00127449 -0.00133142 -0.00133282 -0.00127449 -0.00127648 -0.00133282 -0.00133482 -0.00133142 -0.00133282 -0.0013884 -0.00138976 -0.00133282 -0.00133482 -0.00138976 -0.00139171 -0.00115559 -0.00115784 -0.0012167 -0.00121922 -0.00115784 -0.00116074 -0.00121922 -0.00122244 -0.0012167 -0.00121922 -0.00127648 -0.00127912 -0.00121922 -0.00122244 -0.00127912 -0.00128246 -0.00116074 -0.00116441 -0.00122244 -0.00122644 -0.00116441 -0.00116897 -0.00122644 -0.00123133 -0.00122244 -0.00122644 -0.00128246 -0.00128655 -0.00122644 -0.00123133 -0.00128655 -0.00129146 -0.00127648 -0.00127912 -0.00133482 -0.00133746 -0.00127912 -0.00128246 -0.00133746 -0.00134076 -0.00133482 -0.00133746 -0.00139171 -0.00139424 -0.00133746 -0.00134076 -0.00139424 -0.00139736 -0.00128246 -0.00128655 -0.00134076 -0.00134474 -0.00128655 -0.00129146 -0.00134474 -0.00134942 -0.00134076 -0.00134474 -0.00139736 -0.00140108 -0.00134474 -0.00134942 -0.00140108 -0.00140537 -0.000901346 -0.000901175 -0.000970023 -0.000971854 -0.000901175 -0.00090098 -0.000971854 -0.000974279 -0.000970023 -0.000971854 -0.00103794 -0.00104152 -0.000971854 -0.000974279 -0.00104152 -0.00104615 -0.00090098 -0.000900752 -0.000974279 -0.000977561 -0.000900752 -0.000900478 -0.000977561 -0.000982154 -0.000974279 -0.000977561 -0.00104615 -0.00105225 -0.000977561 -0.000982154 -0.00105225 -0.00106044 -0.00103794 -0.00104152 -0.00110442 -0.00110928 -0.00104152 -0.00104615 -0.00110928 -0.00111543 -0.00110442 -0.00110928 -0.00116897 -0.00117459 -0.00110928 -0.00111543 -0.00117459 -0.00118149 -0.00104615 -0.00105225 -0.00111543 -0.00112323 -0.00105225 -0.00106044 -0.00112323 -0.0011332 -0.00111543 -0.00112323 -0.00118149 -0.00118992 -0.00112323 -0.0011332 -0.00118992 -0.0012001 -0.000900478 -0.000900126 -0.000982154 -0.000988908 -0.000900126 -0.000899629 -0.000988908 -0.000999655 -0.000982154 -0.000988908 -0.00106044 -0.00107175 -0.000988908 -0.000999655 -0.00107175 -0.00108771 -0.000899629 -0.00089872 -0.000999655 -0.00101858 -0.00089872 -0.000897477 -0.00101858 -0.0010598 -0.000999655 -0.00101858 -0.00108771 -0.00111063 -0.00101858 -0.0010598 -0.00111063 -0.00113478 -0.00106044 -0.00107175 -0.0011332 -0.00114589 -0.00107175 -0.00108771 -0.00114589 -0.0011618 -0.0011332 -0.00114589 -0.0012001 -0.00121215 -0.00114589 -0.0011618 -0.00121215 -0.0012257 -0.00108771 -0.00111063 -0.0011618 -0.00117972 -0.00111063 -0.00113478 -0.00117972 -0.00119812 -0.0011618 -0.00117972 -0.0012257 -0.00123992 -0.00117972 -0.00119812 -0.00123992 -0.00125359 -0.00116897 -0.00117459 -0.00123133 -0.00123723 -0.00117459 -0.00118149 -0.00123723 -0.00124424 -0.00123133 -0.00123723 -0.00129146 -0.00129723 -0.00123723 -0.00124424 -0.00129723 -0.0013039 -0.00118149 -0.00118992 -0.00124424 -0.00125247 -0.00118992 -0.0012001 -0.00125247 -0.00126194 -0.00124424 -0.00125247 -0.0013039 -0.00131146 -0.00125247 -0.00126194 -0.00131146 -0.00131979 -0.00129146 -0.00129723 -0.00134942 -0.00135481 -0.00129723 -0.0013039 -0.00135481 -0.00136086 -0.00134942 -0.00135481 -0.00140537 -0.00141021 -0.00135481 -0.00136086 -0.00141021 -0.00141552 -0.0013039 -0.00131146 -0.00136086 -0.00136751 -0.00131146 -0.00131979 -0.00136751 -0.00137459 -0.00136086 -0.00136751 -0.00141552 -0.00142119 -0.00136751 -0.00137459 -0.00142119 -0.00142705 -0.0012001 -0.00121215 -0.00126194 -0.00127247 -0.00121215 -0.0012257 -0.00127247 -0.00128362 -0.00126194 -0.00127247 -0.00131979 -0.00132864 -0.00127247 -0.00128362 -0.00132864 -0.00133762 -0.0012257 -0.00123992 -0.00128362 -0.00129472 -0.00123992 -0.00125359 -0.00129472 -0.00130517 -0.00128362 -0.00129472 -0.00133762 -0.00134628 -0.00129472 -0.00130517 -0.00134628 -0.00135426 -0.00131979 -0.00132864 -0.00137459 -0.00138185 -0.00132864 -0.00133762 -0.00138185 -0.00138898 -0.00137459 -0.00138185 -0.00142705 -0.00143289 -0.00138185 -0.00138898 -0.00143289 -0.00143847 -0.00133762 -0.00134628 -0.00138898 -0.00139567 -0.00134628 -0.00135426 -0.00139567 -0.00140174 -0.00138898 -0.00139567 -0.00143847 -0.00144358 -0.00139567 -0.00140174 -0.00144358 -0.00144811 -0.0013874 -0.00138762 -0.00144309 -0.0014433 -0.00138762 -0.0013884 -0.0014433 -0.00144404 -0.00144309 -0.0014433 -0.00149748 -0.00149767 -0.0014433 -0.00144404 -0.00149767 -0.00149834 -0.0013884 -0.00138976 -0.00144404 -0.00144532 -0.00138976 -0.00139171 -0.00144532 -0.00144713 -0.00144404 -0.00144532 -0.00149834 -0.0014995 -0.00144532 -0.00144713 -0.0014995 -0.00150113 -0.00149748 -0.00149767 -0.0015506 -0.00155076 -0.00149767 -0.00149834 -0.00155076 -0.00155135 -0.0015506 -0.00155076 -0.0016025 -0.00160264 -0.00155076 -0.00155135 -0.00160264 -0.00160313 -0.00149834 -0.0014995 -0.00155135 -0.00155236 -0.0014995 -0.00150113 -0.00155236 -0.00155378 -0.00155135 -0.00155236 -0.00160313 -0.00160398 -0.00155236 -0.00155378 -0.00160398 -0.00160516 -0.00139171 -0.00139424 -0.00144713 -0.00144947 -0.00139424 -0.00139736 -0.00144947 -0.00145233 -0.00144713 -0.00144947 -0.00150113 -0.00150323 -0.00144947 -0.00145233 -0.00150323 -0.00150576 -0.00139736 -0.00140108 -0.00145233 -0.00145568 -0.00140108 -0.00140537 -0.00145568 -0.0014595 -0.00145233 -0.00145568 -0.00150576 -0.0015087 -0.00145568 -0.0014595 -0.0015087 -0.00151199 -0.00150113 -0.00150323 -0.00155378 -0.0015556 -0.00150323 -0.00150576 -0.0015556 -0.00155777 -0.00155378 -0.0015556 -0.00160516 -0.00160666 -0.0015556 -0.00155777 -0.00160666 -0.00160845 -0.00150576 -0.0015087 -0.00155777 -0.00156025 -0.0015087 -0.00151199 -0.00156025 -0.001563 -0.00155777 -0.00156025 -0.00160845 -0.00161048 -0.00156025 -0.001563 -0.00161048 -0.00161269 -0.0016025 -0.00160264 -0.00165329 -0.00165339 -0.00160264 -0.00160313 -0.00165339 -0.00165377 -0.00165329 -0.00165339 -0.00170305 -0.00170311 -0.00165339 -0.00165377 -0.00170311 -0.00170337 -0.00160313 -0.00160398 -0.00165377 -0.00165443 -0.00160398 -0.00160516 -0.00165443 -0.00165536 -0.00165377 -0.00165443 -0.00170337 -0.00170384 -0.00165443 -0.00165536 -0.00170384 -0.00170449 -0.00170305 -0.00170311 -0.00175192 -0.00175193 -0.00170311 -0.00170337 -0.00175193 -0.00175207 -0.00175192 -0.00175193 -0.0018 -0.0018 -0.00175193 -0.00175207 -0.0018 -0.0018 -0.00170337 -0.00170384 -0.00175207 -0.00175231 -0.00170384 -0.00170449 -0.00175231 -0.00175266 -0.00175207 -0.00175231 -0.0018 -0.0018 -0.00175231 -0.00175266 -0.0018 -0.0018 -0.00160516 -0.00160666 -0.00165536 -0.00165653 -0.00160666 -0.00160845 -0.00165653 -0.00165792 -0.00165536 -0.00165653 -0.00170449 -0.00170531 -0.00165653 -0.00165792 -0.00170531 -0.00170627 -0.00160845 -0.00161048 -0.00165792 -0.00165948 -0.00161048 -0.00161269 -0.00165948 -0.00166116 -0.00165792 -0.00165948 -0.00170627 -0.00170735 -0.00165948 -0.00166116 -0.00170735 -0.0017085 -0.00170449 -0.00170531 -0.00175266 -0.00175309 -0.00170531 -0.00170627 -0.00175309 -0.0017536 -0.00175266 -0.00175309 -0.0018 -0.0018 -0.00175309 -0.0017536 -0.0018 -0.0018 -0.00170627 -0.00170735 -0.0017536 -0.00175416 -0.00170735 -0.0017085 -0.00175416 -0.00175476 -0.0017536 -0.00175416 -0.0018 -0.0018 -0.00175416 -0.00175476 -0.0018 -0.0018 -0.00140537 -0.00141021 -0.0014595 -0.00146371 -0.00141021 -0.00141552 -0.00146371 -0.00146824 -0.0014595 -0.00146371 -0.00151199 -0.00151556 -0.00146371 -0.00146824 -0.00151556 -0.00151931 -0.00141552 -0.00142119 -0.00146824 -0.00147296 -0.00142119 -0.00142705 -0.00147296 -0.0014777 -0.00146824 -0.00147296 -0.00151931 -0.00152314 -0.00147296 -0.0014777 -0.00152314 -0.0015269 -0.00151199 -0.00151556 -0.001563 -0.00156594 -0.00151556 -0.00151931 -0.00156594 -0.00156897 -0.001563 -0.00156594 -0.00161269 -0.00161501 -0.00156594 -0.00156897 -0.00161501 -0.00161737 -0.00151931 -0.00152314 -0.00156897 -0.00157199 -0.00152314 -0.0015269 -0.00157199 -0.00157488 -0.00156897 -0.00157199 -0.00161737 -0.00161968 -0.00157199 -0.00157488 -0.00161968 -0.00162183 -0.00142705 -0.00143289 -0.0014777 -0.0014823 -0.00143289 -0.00143847 -0.0014823 -0.00148659 -0.0014777 -0.0014823 -0.0015269 -0.00153044 -0.0014823 -0.00148659 -0.00153044 -0.00153365 -0.00143847 -0.00144358 -0.00148659 -0.00149041 -0.00144358 -0.00144811 -0.00149041 -0.00149371 -0.00148659 -0.00149041 -0.00153365 -0.00153643 -0.00149041 -0.00149371 -0.00153643 -0.00153873 -0.0015269 -0.00153044 -0.00157488 -0.00157754 -0.00153044 -0.00153365 -0.00157754 -0.00157987 -0.00157488 -0.00157754 -0.00162183 -0.00162374 -0.00157754 -0.00157987 -0.00162374 -0.00162535 -0.00153365 -0.00153643 -0.00157987 -0.00158179 -0.00153643 -0.00153873 -0.00158179 -0.0015833 -0.00157987 -0.00158179 -0.00162535 -0.0016266 -0.00158179 -0.0015833 -0.0016266 -0.00162749 -0.00161269 -0.00161501 -0.00166116 -0.0016629 -0.00161501 -0.00161737 -0.0016629 -0.00166464 -0.00166116 -0.0016629 -0.0017085 -0.00170968 -0.0016629 -0.00166464 -0.00170968 -0.00171083 -0.00161737 -0.00161968 -0.00166464 -0.0016663 -0.00161968 -0.00162183 -0.0016663 -0.00166782 -0.00166464 -0.0016663 -0.00171083 -0.00171192 -0.0016663 -0.00166782 -0.00171192 -0.00171287 -0.0017085 -0.00170968 -0.00175476 -0.00175537 -0.00170968 -0.00171083 -0.00175537 -0.00175596 -0.00175476 -0.00175537 -0.0018 -0.0018 -0.00175537 -0.00175596 -0.0018 -0.0018 -0.00171083 -0.00171192 -0.00175596 -0.0017565 -0.00171192 -0.00171287 -0.0017565 -0.00175697 -0.00175596 -0.0017565 -0.0018 -0.0018 -0.0017565 -0.00175697 -0.0018 -0.0018 -0.00162183 -0.00162374 -0.00166782 -0.00166911 -0.00162374 -0.00162535 -0.00166911 -0.00167014 -0.00166782 -0.00166911 -0.00171287 -0.00171366 -0.00166911 -0.00167014 -0.00171366 -0.00171424 -0.00162535 -0.0016266 -0.00167014 -0.00167087 -0.0016266 -0.00162749 -0.00167087 -0.0016713 -0.00167014 -0.00167087 -0.00171424 -0.00171459 -0.00167087 -0.0016713 -0.00171459 -0.00171472 -0.00171287 -0.00171366 -0.00175697 -0.00175733 -0.00171366 -0.00171424 -0.00175733 -0.00175757 -0.00175697 -0.00175733 -0.0018 -0.0018 -0.00175733 -0.00175757 -0.0018 -0.0018 -0.00171424 -0.00171459 -0.00175757 -0.00175768 -0.00171459 -0.00171472 -0.00175768 -0.00175766 -0.00175757 -0.00175768 -0.0018 -0.0018 -0.00175768 -0.00175766 -0.0018 -0.0018 -0.000897477 -0.00103462 -0.0010598 -0.00109299 -0.00103462 -0.00111604 -0.00109299 -0.00113867 -0.0010598 -0.00109299 -0.00113478 -0.00115991 -0.00109299 -0.00113867 -0.00115991 -0.00118411 -0.00111604 -0.00117138 -0.00113867 -0.00118173 -0.00117138 -0.00121325 -0.00118173 -0.00121852 -0.00113867 -0.00118173 -0.00118411 -0.0012118 -0.00118173 -0.00121852 -0.0012118 -0.00123935 -0.00113478 -0.00115991 -0.00119812 -0.00121511 -0.00115991 -0.00118411 -0.00121511 -0.00123223 -0.00119812 -0.00121511 -0.00125359 -0.00126634 -0.00121511 -0.00123223 -0.00126634 -0.00127863 -0.00118411 -0.0012118 -0.00123223 -0.00125038 -0.0012118 -0.00123935 -0.00125038 -0.00126978 -0.00123223 -0.00125038 -0.00127863 -0.00129148 -0.00125038 -0.00126978 -0.00129148 -0.00130517 -0.00121325 -0.00124662 -0.00121852 -0.00124948 -0.00124662 -0.00127392 -0.00124948 -0.00127554 -0.00121852 -0.00124948 -0.00123935 -0.00126472 -0.00124948 -0.00127554 -0.00126472 -0.00128729 -0.00127392 -0.00129654 -0.00127554 -0.0012975 -0.00129654 -0.00131536 -0.0012975 -0.00131601 -0.00127554 -0.0012975 -0.00128729 -0.00130699 -0.0012975 -0.00131601 -0.00130699 -0.00132399 -0.00123935 -0.00126472 -0.00126978 -0.00128908 -0.00126472 -0.00128729 -0.00128908 -0.00130727 -0.00126978 -0.00128908 -0.00130517 -0.00131934 -0.00128908 -0.00130727 -0.00131934 -0.00133334 -0.00128729 -0.00130699 -0.00130727 -0.00132384 -0.00130699 -0.00132399 -0.00132384 -0.00133857 -0.00130727 -0.00132384 -0.00133334 -0.0013466 -0.00132384 -0.00133857 -0.0013466 -0.00135877 -0.00125359 -0.00126634 -0.00130517 -0.00131477 -0.00126634 -0.00127863 -0.00131477 -0.00132391 -0.00130517 -0.00131477 -0.00135426 -0.00136152 -0.00131477 -0.00132391 -0.00136152 -0.00136831 -0.00127863 -0.00129148 -0.00132391 -0.00133317 -0.00129148 -0.00130517 -0.00133317 -0.00134296 -0.00132391 -0.00133317 -0.00136831 -0.00137504 -0.00133317 -0.00134296 -0.00137504 -0.00138203 -0.00135426 -0.00136152 -0.00140174 -0.00140717 -0.00136152 -0.00136831 -0.00140717 -0.00141215 -0.00140174 -0.00140717 -0.00144811 -0.00145209 -0.00140717 -0.00141215 -0.00145209 -0.00145564 -0.00136831 -0.00137504 -0.00141215 -0.00141697 -0.00137504 -0.00138203 -0.00141697 -0.0014219 -0.00141215 -0.00141697 -0.00145564 -0.00145899 -0.00141697 -0.0014219 -0.00145899 -0.00146234 -0.00130517 -0.00131934 -0.00134296 -0.00135324 -0.00131934 -0.00133334 -0.00135324 -0.00136368 -0.00134296 -0.00135324 -0.00138203 -0.00138939 -0.00135324 -0.00136368 -0.00138939 -0.001397 -0.00133334 -0.0013466 -0.00136368 -0.0013739 -0.0013466 -0.00135877 -0.0013739 -0.00138355 -0.00136368 -0.0013739 -0.001397 -0.00140463 -0.0013739 -0.00138355 -0.00140463 -0.00141201 -0.00138203 -0.00138939 -0.0014219 -0.00142706 -0.00138939 -0.001397 -0.00142706 -0.00143245 -0.0014219 -0.00142706 -0.00146234 -0.00146583 -0.00142706 -0.00143245 -0.00146583 -0.00146949 -0.001397 -0.00140463 -0.00143245 -0.00143795 -0.00140463 -0.00141201 -0.00143795 -0.00144339 -0.00143245 -0.00143795 -0.00146949 -0.0014733 -0.00143795 -0.00144339 -0.0014733 -0.00147713 -0.00131536 -0.001331 -0.00131601 -0.00133151 -0.001331 -0.00134389 -0.00133151 -0.00134437 -0.00131601 -0.00133151 -0.00132399 -0.00133847 -0.00133151 -0.00134437 -0.00133847 -0.00135064 -0.00134389 -0.00135435 -0.00134437 -0.00135487 -0.00135435 -0.00136262 -0.00135487 -0.0013632 -0.00134437 -0.00135487 -0.00135064 -0.00136066 -0.00135487 -0.0013632 -0.00136066 -0.00136867 -0.00132399 -0.00133847 -0.00133857 -0.00135141 -0.00133847 -0.00135064 -0.00135141 -0.00136237 -0.00133857 -0.00135141 -0.00135877 -0.00136964 -0.00135141 -0.00136237 -0.00136964 -0.00137909 -0.00135064 -0.00136066 -0.00136237 -0.00137151 -0.00136066 -0.00136867 -0.00137151 -0.00137889 -0.00136237 -0.00137151 -0.00137909 -0.00138709 -0.00137151 -0.00137889 -0.00138709 -0.00139361 -0.00136262 -0.00136888 -0.0013632 -0.00136954 -0.00136888 -0.00137327 -0.00136954 -0.00137398 -0.0013632 -0.00136954 -0.00136867 -0.00137478 -0.00136954 -0.00137398 -0.00137478 -0.00137909 -0.00137327 -0.00137587 -0.00137398 -0.00137662 -0.00137587 -0.00137673 -0.00137662 -0.00137749 -0.00137398 -0.00137662 -0.00137909 -0.00138166 -0.00137662 -0.00137749 -0.00138166 -0.0013825 -0.00136867 -0.00137478 -0.00137889 -0.00138456 -0.00137478 -0.00137909 -0.00138456 -0.00138857 -0.00137889 -0.00138456 -0.00139361 -0.00139867 -0.00138456 -0.00138857 -0.00139867 -0.00140227 -0.00137909 -0.00138166 -0.00138857 -0.00139097 -0.00138166 -0.0013825 -0.00139097 -0.00139176 -0.00138857 -0.00139097 -0.00140227 -0.00140442 -0.00139097 -0.00139176 -0.00140442 -0.00140514 -0.00135877 -0.00136964 -0.00138355 -0.00139238 -0.00136964 -0.00137909 -0.00139238 -0.00140021 -0.00138355 -0.00139238 -0.00141201 -0.00141891 -0.00139238 -0.00140021 -0.00141891 -0.00142516 -0.00137909 -0.00138709 -0.00140021 -0.00140694 -0.00138709 -0.00139361 -0.00140694 -0.0014125 -0.00140021 -0.00140694 -0.00142516 -0.00143061 -0.00140694 -0.0014125 -0.00143061 -0.00143516 -0.00141201 -0.00141891 -0.00144339 -0.00144858 -0.00141891 -0.00142516 -0.00144858 -0.00145337 -0.00144339 -0.00144858 -0.00147713 -0.00148087 -0.00144858 -0.00145337 -0.00148087 -0.00148438 -0.00142516 -0.00143061 -0.00145337 -0.00145762 -0.00143061 -0.00143516 -0.00145762 -0.00146121 -0.00145337 -0.00145762 -0.00148438 -0.00148755 -0.00145762 -0.00146121 -0.00148755 -0.00149027 -0.00139361 -0.00139867 -0.0014125 -0.00141685 -0.00139867 -0.00140227 -0.00141685 -0.00141996 -0.0014125 -0.00141685 -0.00143516 -0.00143876 -0.00141685 -0.00141996 -0.00143876 -0.00144136 -0.00140227 -0.00140442 -0.00141996 -0.00142183 -0.00140442 -0.00140514 -0.00142183 -0.00142245 -0.00141996 -0.00142183 -0.00144136 -0.00144292 -0.00142183 -0.00142245 -0.00144292 -0.00144344 -0.00143516 -0.00143876 -0.00146121 -0.00146408 -0.00143876 -0.00144136 -0.00146408 -0.00146616 -0.00146121 -0.00146408 -0.00149027 -0.00149246 -0.00146408 -0.00146616 -0.00149246 -0.00149406 -0.00144136 -0.00144292 -0.00146616 -0.00146742 -0.00144292 -0.00144344 -0.00146742 -0.00146784 -0.00146616 -0.00146742 -0.00149406 -0.00149503 -0.00146742 -0.00146784 -0.00149503 -0.00149535 -0.00144811 -0.00145209 -0.00149371 -0.00149651 -0.00145209 -0.00145564 -0.00149651 -0.00149893 -0.00149371 -0.00149651 -0.00153873 -0.0015406 -0.00149651 -0.00149893 -0.0015406 -0.00154211 -0.00145564 -0.00145899 -0.00149893 -0.00150112 -0.00145899 -0.00146234 -0.00150112 -0.00150326 -0.00149893 -0.00150112 -0.00154211 -0.0015434 -0.00150112 -0.00150326 -0.0015434 -0.0015446 -0.00153873 -0.0015406 -0.0015833 -0.00158443 -0.0015406 -0.00154211 -0.00158443 -0.00158524 -0.0015833 -0.00158443 -0.00162749 -0.00162805 -0.00158443 -0.00158524 -0.00162805 -0.00162833 -0.00154211 -0.0015434 -0.00158524 -0.00158584 -0.0015434 -0.0015446 -0.00158584 -0.00158634 -0.00158524 -0.00158584 -0.00162833 -0.00162843 -0.00158584 -0.00158634 -0.00162843 -0.00162843 -0.00146234 -0.00146583 -0.00150326 -0.00150546 -0.00146583 -0.00146949 -0.00150546 -0.0015078 -0.00150326 -0.00150546 -0.0015446 -0.00154583 -0.00150546 -0.0015078 -0.00154583 -0.00154715 -0.00146949 -0.0014733 -0.0015078 -0.00151026 -0.0014733 -0.00147713 -0.00151026 -0.00151281 -0.0015078 -0.00151026 -0.00154715 -0.00154858 -0.00151026 -0.00151281 -0.00154858 -0.00155012 -0.0015446 -0.00154583 -0.00158634 -0.00158683 -0.00154583 -0.00154715 -0.00158683 -0.0015874 -0.00158634 -0.00158683 -0.00162843 -0.00162842 -0.00158683 -0.0015874 -0.00162842 -0.00162846 -0.00154715 -0.00154858 -0.0015874 -0.00158807 -0.00154858 -0.00155012 -0.00158807 -0.00158885 -0.0015874 -0.00158807 -0.00162846 -0.0016286 -0.00158807 -0.00158885 -0.0016286 -0.00162883 -0.00162749 -0.00162805 -0.0016713 -0.00167146 -0.00162805 -0.00162833 -0.00167146 -0.0016714 -0.0016713 -0.00167146 -0.00171472 -0.00171465 -0.00167146 -0.0016714 -0.00171465 -