# vtk DataFile Version 3.0
#This file was generated by the deal.II library on 2018/7/10 at 10:47:00
ASCII
DATASET UNSTRUCTURED_GRID

POINTS 4096 double
0 0.5 0
0.03125 0.5 0
0 0.53125 0
0.03125 0.53125 0
0.03125 0.5 0
0.0625 0.5 0
0.03125 0.53125 0
0.0625 0.53125 0
0 0.53125 0
0.03125 0.53125 0
0 0.5625 0
0.03125 0.5625 0
0.03125 0.53125 0
0.0625 0.53125 0
0.03125 0.5625 0
0.0625 0.5625 0
0.0625 0.5 0
0.09375 0.5 0
0.0625 0.53125 0
0.09375 0.53125 0
0.09375 0.5 0
0.125 0.5 0
0.09375 0.53125 0
0.125 0.53125 0
0.0625 0.53125 0
0.09375 0.53125 0
0.0625 0.5625 0
0.09375 0.5625 0
0.09375 0.53125 0
0.125 0.53125 0
0.09375 0.5625 0
0.125 0.5625 0
0 0.5625 0
0.03125 0.5625 0
0 0.59375 0
0.03125 0.59375 0
0.03125 0.5625 0
0.0625 0.5625 0
0.03125 0.59375 0
0.0625 0.59375 0
0 0.59375 0
0.03125 0.59375 0
0 0.625 0
0.03125 0.625 0
0.03125 0.59375 0
0.0625 0.59375 0
0.03125 0.625 0
0.0625 0.625 0
0.0625 0.5625 0
0.09375 0.5625 0
0.0625 0.59375 0
0.09375 0.59375 0
0.09375 0.5625 0
0.125 0.5625 0
0.09375 0.59375 0
0.125 0.59375 0
0.0625 0.59375 0
0.09375 0.59375 0
0.0625 0.625 0
0.09375 0.625 0
0.09375 0.59375 0
0.125 0.59375 0
0.09375 0.625 0
0.125 0.625 0
0.125 0.5 0
0.15625 0.5 0
0.125 0.53125 0
0.15625 0.53125 0
0.15625 0.5 0
0.1875 0.5 0
0.15625 0.53125 0
0.1875 0.53125 0
0.125 0.53125 0
0.15625 0.53125 0
0.125 0.5625 0
0.15625 0.5625 0
0.15625 0.53125 0
0.1875 0.53125 0
0.15625 0.5625 0
0.1875 0.5625 0
0.1875 0.5 0
0.21875 0.5 0
0.1875 0.53125 0
0.21875 0.53125 0
0.21875 0.5 0
0.25 0.5 0
0.21875 0.53125 0
0.25 0.53125 0
0.1875 0.53125 0
0.21875 0.53125 0
0.1875 0.5625 0
0.21875 0.5625 0
0.21875 0.53125 0
0.25 0.53125 0
0.21875 0.5625 0
0.25 0.5625 0
0.125 0.5625 0
0.15625 0.5625 0
0.125 0.59375 0
0.15625 0.59375 0
0.15625 0.5625 0
0.1875 0.5625 0
0.15625 0.59375 0
0.1875 0.59375 0
0.125 0.59375 0
0.15625 0.59375 0
0.125 0.625 0
0.15625 0.625 0
0.15625 0.59375 0
0.1875 0.59375 0
0.15625 0.625 0
0.1875 0.625 0
0.1875 0.5625 0
0.21875 0.5625 0
0.1875 0.59375 0
0.21875 0.59375 0
0.21875 0.5625 0
0.25 0.5625 0
0.21875 0.59375 0
0.25 0.59375 0
0.1875 0.59375 0
0.21875 0.59375 0
0.1875 0.625 0
0.21875 0.625 0
0.21875 0.59375 0
0.25 0.59375 0
0.21875 0.625 0
0.25 0.625 0
0 0.625 0
0.03125 0.625 0
0 0.65625 0
0.03125 0.65625 0
0.03125 0.625 0
0.0625 0.625 0
0.03125 0.65625 0
0.0625 0.65625 0
0 0.65625 0
0.03125 0.65625 0
0 0.6875 0
0.03125 0.6875 0
0.03125 0.65625 0
0.0625 0.65625 0
0.03125 0.6875 0
0.0625 0.6875 0
0.0625 0.625 0
0.09375 0.625 0
0.0625 0.65625 0
0.09375 0.65625 0
0.09375 0.625 0
0.125 0.625 0
0.09375 0.65625 0
0.125 0.65625 0
0.0625 0.65625 0
0.09375 0.65625 0
0.0625 0.6875 0
0.09375 0.6875 0
0.09375 0.65625 0
0.125 0.65625 0
0.09375 0.6875 0
0.125 0.6875 0
0 0.6875 0
0.03125 0.6875 0
0 0.71875 0
0.03125 0.71875 0
0.03125 0.6875 0
0.0625 0.6875 0
0.03125 0.71875 0
0.0625 0.71875 0
0 0.71875 0
0.03125 0.71875 0
0 0.75 0
0.03125 0.75 0
0.03125 0.71875 0
0.0625 0.71875 0
0.03125 0.75 0
0.0625 0.75 0
0.0625 0.6875 0
0.09375 0.6875 0
0.0625 0.71875 0
0.09375 0.71875 0
0.09375 0.6875 0
0.125 0.6875 0
0.09375 0.71875 0
0.125 0.71875 0
0.0625 0.71875 0
0.09375 0.71875 0
0.0625 0.75 0
0.09375 0.75 0
0.09375 0.71875 0
0.125 0.71875 0
0.09375 0.75 0
0.125 0.75 0
0.125 0.625 0
0.15625 0.625 0
0.125 0.65625 0
0.15625 0.65625 0
0.15625 0.625 0
0.1875 0.625 0
0.15625 0.65625 0
0.1875 0.65625 0
0.125 0.65625 0
0.15625 0.65625 0
0.125 0.6875 0
0.15625 0.6875 0
0.15625 0.65625 0
0.1875 0.65625 0
0.15625 0.6875 0
0.1875 0.6875 0
0.1875 0.625 0
0.21875 0.625 0
0.1875 0.65625 0
0.21875 0.65625 0
0.21875 0.625 0
0.25 0.625 0
0.21875 0.65625 0
0.25 0.65625 0
0.1875 0.65625 0
0.21875 0.65625 0
0.1875 0.6875 0
0.21875 0.6875 0
0.21875 0.65625 0
0.25 0.65625 0
0.21875 0.6875 0
0.25 0.6875 0
0.125 0.6875 0
0.15625 0.6875 0
0.125 0.71875 0
0.15625 0.71875 0
0.15625 0.6875 0
0.1875 0.6875 0
0.15625 0.71875 0
0.1875 0.71875 0
0.125 0.71875 0
0.15625 0.71875 0
0.125 0.75 0
0.15625 0.75 0
0.15625 0.71875 0
0.1875 0.71875 0
0.15625 0.75 0
0.1875 0.75 0
0.1875 0.6875 0
0.21875 0.6875 0
0.1875 0.71875 0
0.21875 0.71875 0
0.21875 0.6875 0
0.25 0.6875 0
0.21875 0.71875 0
0.25 0.71875 0
0.1875 0.71875 0
0.21875 0.71875 0
0.1875 0.75 0
0.21875 0.75 0
0.21875 0.71875 0
0.25 0.71875 0
0.21875 0.75 0
0.25 0.75 0
0.25 0.5 0
0.28125 0.5 0
0.25 0.53125 0
0.28125 0.53125 0
0.28125 0.5 0
0.3125 0.5 0
0.28125 0.53125 0
0.3125 0.53125 0
0.25 0.53125 0
0.28125 0.53125 0
0.25 0.5625 0
0.28125 0.5625 0
0.28125 0.53125 0
0.3125 0.53125 0
0.28125 0.5625 0
0.3125 0.5625 0
0.3125 0.5 0
0.34375 0.5 0
0.3125 0.53125 0
0.34375 0.53125 0
0.34375 0.5 0
0.375 0.5 0
0.34375 0.53125 0
0.375 0.53125 0
0.3125 0.53125 0
0.34375 0.53125 0
0.3125 0.5625 0
0.34375 0.5625 0
0.34375 0.53125 0
0.375 0.53125 0
0.34375 0.5625 0
0.375 0.5625 0
0.25 0.5625 0
0.28125 0.5625 0
0.25 0.59375 0
0.28125 0.59375 0
0.28125 0.5625 0
0.3125 0.5625 0
0.28125 0.59375 0
0.3125 0.59375 0
0.25 0.59375 0
0.28125 0.59375 0
0.25 0.625 0
0.28125 0.625 0
0.28125 0.59375 0
0.3125 0.59375 0
0.28125 0.625 0
0.3125 0.625 0
0.3125 0.5625 0
0.34375 0.5625 0
0.3125 0.59375 0
0.34375 0.59375 0
0.34375 0.5625 0
0.375 0.5625 0
0.34375 0.59375 0
0.375 0.59375 0
0.3125 0.59375 0
0.34375 0.59375 0
0.3125 0.625 0
0.34375 0.625 0
0.34375 0.59375 0
0.375 0.59375 0
0.34375 0.625 0
0.375 0.625 0
0.375 0.5 0
0.40625 0.5 0
0.375 0.53125 0
0.40625 0.53125 0
0.40625 0.5 0
0.4375 0.5 0
0.40625 0.53125 0
0.4375 0.53125 0
0.375 0.53125 0
0.40625 0.53125 0
0.375 0.5625 0
0.40625 0.5625 0
0.40625 0.53125 0
0.4375 0.53125 0
0.40625 0.5625 0
0.4375 0.5625 0
0.4375 0.5 0
0.46875 0.5 0
0.4375 0.53125 0
0.46875 0.53125 0
0.46875 0.5 0
0.5 0.5 0
0.46875 0.53125 0
0.5 0.53125 0
0.4375 0.53125 0
0.46875 0.53125 0
0.4375 0.5625 0
0.46875 0.5625 0
0.46875 0.53125 0
0.5 0.53125 0
0.46875 0.5625 0
0.5 0.5625 0
0.375 0.5625 0
0.40625 0.5625 0
0.375 0.59375 0
0.40625 0.59375 0
0.40625 0.5625 0
0.4375 0.5625 0
0.40625 0.59375 0
0.4375 0.59375 0
0.375 0.59375 0
0.40625 0.59375 0
0.375 0.625 0
0.40625 0.625 0
0.40625 0.59375 0
0.4375 0.59375 0
0.40625 0.625 0
0.4375 0.625 0
0.4375 0.5625 0
0.46875 0.5625 0
0.4375 0.59375 0
0.46875 0.59375 0
0.46875 0.5625 0
0.5 0.5625 0
0.46875 0.59375 0
0.5 0.59375 0
0.4375 0.59375 0
0.46875 0.59375 0
0.4375 0.625 0
0.46875 0.625 0
0.46875 0.59375 0
0.5 0.59375 0
0.46875 0.625 0
0.5 0.625 0
0.25 0.625 0
0.28125 0.625 0
0.25 0.65625 0
0.28125 0.65625 0
0.28125 0.625 0
0.3125 0.625 0
0.28125 0.65625 0
0.3125 0.65625 0
0.25 0.65625 0
0.28125 0.65625 0
0.25 0.6875 0
0.28125 0.6875 0
0.28125 0.65625 0
0.3125 0.65625 0
0.28125 0.6875 0
0.3125 0.6875 0
0.3125 0.625 0
0.34375 0.625 0
0.3125 0.65625 0
0.34375 0.65625 0
0.34375 0.625 0
0.375 0.625 0
0.34375 0.65625 0
0.375 0.65625 0
0.3125 0.65625 0
0.34375 0.65625 0
0.3125 0.6875 0
0.34375 0.6875 0
0.34375 0.65625 0
0.375 0.65625 0
0.34375 0.6875 0
0.375 0.6875 0
0.25 0.6875 0
0.28125 0.6875 0
0.25 0.71875 0
0.28125 0.71875 0
0.28125 0.6875 0
0.3125 0.6875 0
0.28125 0.71875 0
0.3125 0.71875 0
0.25 0.71875 0
0.28125 0.71875 0
0.25 0.75 0
0.28125 0.75 0
0.28125 0.71875 0
0.3125 0.71875 0
0.28125 0.75 0
0.3125 0.75 0
0.3125 0.6875 0
0.34375 0.6875 0
0.3125 0.71875 0
0.34375 0.71875 0
0.34375 0.6875 0
0.375 0.6875 0
0.34375 0.71875 0
0.375 0.71875 0
0.3125 0.71875 0
0.34375 0.71875 0
0.3125 0.75 0
0.34375 0.75 0
0.34375 0.71875 0
0.375 0.71875 0
0.34375 0.75 0
0.375 0.75 0
0.375 0.625 0
0.40625 0.625 0
0.375 0.65625 0
0.40625 0.65625 0
0.40625 0.625 0
0.4375 0.625 0
0.40625 0.65625 0
0.4375 0.65625 0
0.375 0.65625 0
0.40625 0.65625 0
0.375 0.6875 0
0.40625 0.6875 0
0.40625 0.65625 0
0.4375 0.65625 0
0.40625 0.6875 0
0.4375 0.6875 0
0.4375 0.625 0
0.46875 0.625 0
0.4375 0.65625 0
0.46875 0.65625 0
0.46875 0.625 0
0.5 0.625 0
0.46875 0.65625 0
0.5 0.65625 0
0.4375 0.65625 0
0.46875 0.65625 0
0.4375 0.6875 0
0.46875 0.6875 0
0.46875 0.65625 0
0.5 0.65625 0
0.46875 0.6875 0
0.5 0.6875 0
0.375 0.6875 0
0.40625 0.6875 0
0.375 0.71875 0
0.40625 0.71875 0
0.40625 0.6875 0
0.4375 0.6875 0
0.40625 0.71875 0
0.4375 0.71875 0
0.375 0.71875 0
0.40625 0.71875 0
0.375 0.75 0
0.40625 0.75 0
0.40625 0.71875 0
0.4375 0.71875 0
0.40625 0.75 0
0.4375 0.75 0
0.4375 0.6875 0
0.46875 0.6875 0
0.4375 0.71875 0
0.46875 0.71875 0
0.46875 0.6875 0
0.5 0.6875 0
0.46875 0.71875 0
0.5 0.71875 0
0.4375 0.71875 0
0.46875 0.71875 0
0.4375 0.75 0
0.46875 0.75 0
0.46875 0.71875 0
0.5 0.71875 0
0.46875 0.75 0
0.5 0.75 0
0 0.75 0
0.03125 0.75 0
0 0.78125 0
0.03125 0.78125 0
0.03125 0.75 0
0.0625 0.75 0
0.03125 0.78125 0
0.0625 0.78125 0
0 0.78125 0
0.03125 0.78125 0
0 0.8125 0
0.03125 0.8125 0
0.03125 0.78125 0
0.0625 0.78125 0
0.03125 0.8125 0
0.0625 0.8125 0
0.0625 0.75 0
0.09375 0.75 0
0.0625 0.78125 0
0.09375 0.78125 0
0.09375 0.75 0
0.125 0.75 0
0.09375 0.78125 0
0.125 0.78125 0
0.0625 0.78125 0
0.09375 0.78125 0
0.0625 0.8125 0
0.09375 0.8125 0
0.09375 0.78125 0
0.125 0.78125 0
0.09375 0.8125 0
0.125 0.8125 0
0 0.8125 0
0.03125 0.8125 0
0 0.84375 0
0.03125 0.84375 0
0.03125 0.8125 0
0.0625 0.8125 0
0.03125 0.84375 0
0.0625 0.84375 0
0 0.84375 0
0.03125 0.84375 0
0 0.875 0
0.03125 0.875 0
0.03125 0.84375 0
0.0625 0.84375 0
0.03125 0.875 0
0.0625 0.875 0
0.0625 0.8125 0
0.09375 0.8125 0
0.0625 0.84375 0
0.09375 0.84375 0
0.09375 0.8125 0
0.125 0.8125 0
0.09375 0.84375 0
0.125 0.84375 0
0.0625 0.84375 0
0.09375 0.84375 0
0.0625 0.875 0
0.09375 0.875 0
0.09375 0.84375 0
0.125 0.84375 0
0.09375 0.875 0
0.125 0.875 0
0.125 0.75 0
0.15625 0.75 0
0.125 0.78125 0
0.15625 0.78125 0
0.15625 0.75 0
0.1875 0.75 0
0.15625 0.78125 0
0.1875 0.78125 0
0.125 0.78125 0
0.15625 0.78125 0
0.125 0.8125 0
0.15625 0.8125 0
0.15625 0.78125 0
0.1875 0.78125 0
0.15625 0.8125 0
0.1875 0.8125 0
0.1875 0.75 0
0.21875 0.75 0
0.1875 0.78125 0
0.21875 0.78125 0
0.21875 0.75 0
0.25 0.75 0
0.21875 0.78125 0
0.25 0.78125 0
0.1875 0.78125 0
0.21875 0.78125 0
0.1875 0.8125 0
0.21875 0.8125 0
0.21875 0.78125 0
0.25 0.78125 0
0.21875 0.8125 0
0.25 0.8125 0
0.125 0.8125 0
0.15625 0.8125 0
0.125 0.84375 0
0.15625 0.84375 0
0.15625 0.8125 0
[...]
POINT_DATA 4096
SCALARS State_InstatPDEProblemContainer_0 double 1
LOOKUP_TABLE default
-0.00161187 -0.00161131 -0.00172435 -0.00172393 -0.00161131 -0.00161079 -0.00172393 -0.00172379 -0.00172435 -0.00172393 -0.00183624 -0.00183594 -0.00172393 -0.00172379 -0.00183594 -0.00183617 -0.00161079 -0.00161029 -0.00172379 -0.00172395 -0.00161029 -0.00160982 -0.00172395 -0.00172443 -0.00172379 -0.00172395 -0.00183617 -0.00183695 -0.00172395 -0.00172443 -0.00183695 -0.00183832 -0.00183624 -0.00183594 -0.00194706 -0.00194689 -0.00183594 -0.00183617 -0.00194689 -0.00194744 -0.00194706 -0.00194689 -0.00205641 -0.00205635 -0.00194689 -0.00194744 -0.00205635 -0.00205716 -0.00183617 -0.00183695 -0.00194744 -0.00194875 -0.00183695 -0.00183832 -0.00194875 -0.00195087 -0.00194744 -0.00194875 -0.00205716 -0.00205888 -0.00194875 -0.00195087 -0.00205888 -0.00206158 -0.00160982 -0.00160936 -0.00172443 -0.00172527 -0.00160936 -0.00160891 -0.00172527 -0.00172651 -0.00172443 -0.00172527 -0.00183832 -0.00184034 -0.00172527 -0.00172651 -0.00184034 -0.00184313 -0.00160891 -0.00160848 -0.00172651 -0.00172825 -0.00160848 -0.00160805 -0.00172825 -0.00173061 -0.00172651 -0.00172825 -0.00184313 -0.00184682 -0.00172825 -0.00173061 -0.00184682 -0.00185164 -0.00183832 -0.00184034 -0.00195087 -0.00195389 -0.00184034 -0.00184313 -0.00195389 -0.00195794 -0.00195087 -0.00195389 -0.00206158 -0.00206535 -0.00195389 -0.00195794 -0.00206535 -0.00207031 -0.00184313 -0.00184682 -0.00195794 -0.0019632 -0.00184682 -0.00185164 -0.0019632 -0.00196992 -0.00195794 -0.0019632 -0.00207031 -0.00207665 -0.0019632 -0.00196992 -0.00207665 -0.00208459 -0.00205641 -0.00205635 -0.00216395 -0.00216397 -0.00205635 -0.00205716 -0.00216397 -0.00216497 -0.00216395 -0.00216397 -0.00226941 -0.00226948 -0.00216397 -0.00216497 -0.00226948 -0.00227059 -0.00205716 -0.00205888 -0.00216497 -0.00216698 -0.00205888 -0.00206158 -0.00216698 -0.00217007 -0.00216497 -0.00216698 -0.00227059 -0.00227277 -0.00216698 -0.00217007 -0.00227277 -0.00227606 -0.00226941 -0.00226948 -0.00237259 -0.00237271 -0.00226948 -0.00227059 -0.00237271 -0.00237386 -0.00237259 -0.00237271 -0.00247341 -0.00247353 -0.00237271 -0.00237386 -0.00247353 -0.00247468 -0.00227059 -0.00227277 -0.00237386 -0.00237608 -0.00227277 -0.00227606 -0.00237608 -0.0023794 -0.00237386 -0.00237608 -0.00247468 -0.00247684 -0.00237608 -0.0023794 -0.00247684 -0.00248004 -0.00206158 -0.00206535 -0.00217007 -0.00217431 -0.00206535 -0.00207031 -0.00217431 -0.00217982 -0.00217007 -0.00217431 -0.00227606 -0.00228051 -0.00217431 -0.00217982 -0.00228051 -0.00228622 -0.00207031 -0.00207665 -0.00217982 -0.00218673 -0.00207665 -0.00208459 -0.00218673 -0.00219523 -0.00217982 -0.00218673 -0.00228622 -0.00229327 -0.00218673 -0.00219523 -0.00229327 -0.00230176 -0.00227606 -0.00228051 -0.0023794 -0.00238384 -0.00228051 -0.00228622 -0.00238384 -0.00238946 -0.0023794 -0.00238384 -0.00248004 -0.00248428 -0.00238384 -0.00238946 -0.00248428 -0.00248959 -0.00228622 -0.00229327 -0.00238946 -0.00239629 -0.00229327 -0.00230176 -0.00239629 -0.00240436 -0.00238946 -0.00239629 -0.00248959 -0.00249594 -0.00239629 -0.00240436 -0.00249594 -0.00250333 -0.00160805 -0.00160761 -0.00173061 -0.00173377 -0.00160761 -0.00160717 -0.00173377 -0.00173803 -0.00173061 -0.00173377 -0.00185164 -0.00185791 -0.00173377 -0.00173803 -0.00185791 -0.00186609 -0.00160717 -0.0016067 -0.00173803 -0.00174385 -0.0016067 -0.00160619 -0.00174385 -0.00175204 -0.00173803 -0.00174385 -0.00186609 -0.00187689 -0.00174385 -0.00175204 -0.00187689 -0.00189143 -0.00185164 -0.00185791 -0.00196992 -0.00197845 -0.00185791 -0.00186609 -0.00197845 -0.00198927 -0.00196992 -0.00197845 -0.00208459 -0.00209443 -0.00197845 -0.00198927 -0.00209443 -0.00210653 -0.00186609 -0.00187689 -0.00198927 -0.00200304 -0.00187689 -0.00189143 -0.00200304 -0.00202063 -0.00198927 -0.00200304 -0.00210653 -0.00212133 -0.00200304 -0.00202063 -0.00212133 -0.00213922 -0.00160619 -0.0016056 -0.00175204 -0.00176413 -0.0016056 -0.0016048 -0.00176413 -0.00178335 -0.00175204 -0.00176413 -0.00189143 -0.0019115 -0.00176413 -0.00178335 -0.0019115 -0.00193977 -0.0016048 -0.00160342 -0.00178335 -0.00181707 -0.00160342 -0.00160169 -0.00181707 -0.00188997 -0.00178335 -0.00181707 -0.00193977 -0.00198021 -0.00181707 -0.00188997 -0.00198021 -0.00202273 -0.00189143 -0.0019115 -0.00202063 -0.00204302 -0.0019115 -0.00193977 -0.00204302 -0.00207103 -0.00202063 -0.00204302 -0.00213922 -0.00216038 -0.00204302 -0.00207103 -0.00216038 -0.00218415 -0.00193977 -0.00198021 -0.00207103 -0.00210253 -0.00198021 -0.00202273 -0.00210253 -0.00213486 -0.00207103 -0.00210253 -0.00218415 -0.00220908 -0.00210253 -0.00213486 -0.00220908 -0.00223304 -0.00208459 -0.00209443 -0.00219523 -0.0022055 -0.00209443 -0.00210653 -0.0022055 -0.00221775 -0.00219523 -0.0022055 -0.00230176 -0.00231179 -0.0022055 -0.00221775 -0.00231179 -0.0023234 -0.00210653 -0.00212133 -0.00221775 -0.00223215 -0.00212133 -0.00213922 -0.00223215 -0.00224872 -0.00221775 -0.00223215 -0.0023234 -0.00233657 -0.00223215 -0.00224872 -0.00233657 -0.00235108 -0.00230176 -0.00231179 -0.00240436 -0.00241368 -0.00231179 -0.0023234 -0.00241368 -0.00242418 -0.00240436 -0.00241368 -0.00250333 -0.00251167 -0.00241368 -0.00242418 -0.00251167 -0.00252084 -0.0023234 -0.00233657 -0.00242418 -0.00243572 -0.00233657 -0.00235108 -0.00243572 -0.00244802 -0.00242418 -0.00243572 -0.00252084 -0.00253065 -0.00243572 -0.00244802 -0.00253065 -0.0025408 -0.00213922 -0.00216038 -0.00224872 -0.00226713 -0.00216038 -0.00218415 -0.00226713 -0.00228664 -0.00224872 -0.00226713 -0.00235108 -0.00236651 -0.00226713 -0.00228664 -0.00236651 -0.00238217 -0.00218415 -0.00220908 -0.00228664 -0.00230605 -0.00220908 -0.00223304 -0.00230605 -0.00232432 -0.00228664 -0.00230605 -0.00238217 -0.00239726 -0.00230605 -0.00232432 -0.00239726 -0.00241118 -0.00235108 -0.00236651 -0.00244802 -0.00246063 -0.00236651 -0.00238217 -0.00246063 -0.00247302 -0.00244802 -0.00246063 -0.0025408 -0.0025509 -0.00246063 -0.00247302 -0.0025509 -0.00256055 -0.00238217 -0.00239726 -0.00247302 -0.00248465 -0.00239726 -0.00241118 -0.00248465 -0.00249519 -0.00247302 -0.00248465 -0.00256055 -0.0025694 -0.00248465 -0.00249519 -0.0025694 -0.00257725 -0.00247341 -0.00247353 -0.0025718 -0.00257193 -0.00247353 -0.00247468 -0.00257193 -0.002573 -0.0025718 -0.00257193 -0.00266781 -0.00266792 -0.00257193 -0.002573 -0.00266792 -0.00266889 -0.00247468 -0.00247684 -0.002573 -0.00257503 -0.00247684 -0.00248004 -0.00257503 -0.002578 -0.002573 -0.00257503 -0.00266889 -0.00267071 -0.00257503 -0.002578 -0.00267071 -0.00267338 -0.00266781 -0.00266792 -0.00276149 -0.00276157 -0.00266792 -0.00266889 -0.00276157 -0.00276241 -0.00276149 -0.00276157 -0.00285297 -0.00285301 -0.00276157 -0.00276241 -0.00285301 -0.00285369 -0.00266889 -0.00267071 -0.00276241 -0.00276399 -0.00267071 -0.00267338 -0.00276399 -0.0027663 -0.00276241 -0.00276399 -0.00285369 -0.00285499 -0.00276399 -0.0027663 -0.00285499 -0.00285691 -0.00248004 -0.00248428 -0.002578 -0.00258192 -0.00248428 -0.00248959 -0.00258192 -0.00258675 -0.002578 -0.00258192 -0.00267338 -0.00267687 -0.00258192 -0.00258675 -0.00267687 -0.00268114 -0.00248959 -0.00249594 -0.00258675 -0.00259247 -0.00249594 -0.00250333 -0.00259247 -0.002599 -0.00258675 -0.00259247 -0.00268114 -0.00268613 -0.00259247 -0.002599 -0.00268613 -0.00269174 -0.00267338 -0.00267687 -0.0027663 -0.0027693 -0.00267687 -0.00268114 -0.0027693 -0.00277295 -0.0027663 -0.0027693 -0.00285691 -0.00285938 -0.0027693 -0.00277295 -0.00285938 -0.00286237 -0.00268114 -0.00268613 -0.00277295 -0.00277715 -0.00268613 -0.00269174 -0.00277715 -0.00278183 -0.00277295 -0.00277715 -0.00286237 -0.00286579 -0.00277715 -0.00278183 -0.00286579 -0.00286954 -0.00285297 -0.00285301 -0.00294238 -0.00294238 -0.00285301 -0.00285369 -0.00294238 -0.00294288 -0.00294238 -0.00294238 -0.00302992 -0.00302986 -0.00294238 -0.00294288 -0.00302986 -0.00303017 -0.00285369 -0.00285499 -0.00294288 -0.00294389 -0.00285499 -0.00285691 -0.00294389 -0.00294537 -0.00294288 -0.00294389 -0.00303017 -0.00303086 -0.00294389 -0.00294537 -0.00303086 -0.0030319 -0.00302992 -0.00302986 -0.00311578 -0.00311564 -0.00302986 -0.00303017 -0.00311564 -0.00311579 -0.00311578 -0.00311564 -0.0032 -0.0032 -0.00311564 -0.00311579 -0.0032 -0.0032 -0.00303017 -0.00303086 -0.00311579 -0.00311614 -0.00303086 -0.0030319 -0.00311614 -0.00311669 -0.00311579 -0.00311614 -0.0032 -0.0032 -0.00311614 -0.00311669 -0.0032 -0.0032 -0.00285691 -0.00285938 -0.00294537 -0.0029473 -0.00285938 -0.00286237 -0.0029473 -0.00294961 -0.00294537 -0.0029473 -0.0030319 -0.00303324 -0.0029473 -0.00294961 -0.00303324 -0.00303484 -0.00286237 -0.00286579 -0.00294961 -0.00295223 -0.00286579 -0.00286954 -0.00295223 -0.00295507 -0.00294961 -0.00295223 -0.00303484 -0.00303665 -0.00295223 -0.00295507 -0.00303665 -0.00303859 -0.0030319 -0.00303324 -0.00311669 -0.0031174 -0.00303324 -0.00303484 -0.0031174 -0.00311825 -0.00311669 -0.0031174 -0.0032 -0.0032 -0.0031174 -0.00311825 -0.0032 -0.0032 -0.00303484 -0.00303665 -0.00311825 -0.0031192 -0.00303665 -0.00303859 -0.0031192 -0.00312021 -0.00311825 -0.0031192 -0.0032 -0.0032 -0.0031192 -0.00312021 -0.0032 -0.0032 -0.00250333 -0.00251167 -0.002599 -0.00260624 -0.00251167 -0.00252084 -0.00260624 -0.00261403 -0.002599 -0.00260624 -0.00269174 -0.00269784 -0.00260624 -0.00261403 -0.00269784 -0.00270429 -0.00252084 -0.00253065 -0.00261403 -0.00262216 -0.00253065 -0.0025408 -0.00262216 -0.00263034 -0.00261403 -0.00262216 -0.00270429 -0.00271085 -0.00262216 -0.00263034 -0.00271085 -0.00271731 -0.00269174 -0.00269784 -0.00278183 -0.00278683 -0.00269784 -0.00270429 -0.00278683 -0.00279201 -0.00278183 -0.00278683 -0.00286954 -0.00287349 -0.00278683 -0.00279201 -0.00287349 -0.00287751 -0.00270429 -0.00271085 -0.00279201 -0.00279718 -0.00271085 -0.00271731 -0.00279718 -0.00280213 -0.00279201 -0.00279718 -0.00287751 -0.00288144 -0.00279718 -0.00280213 -0.00288144 -0.0028851 -0.0025408 -0.0025509 -0.00263034 -0.00263828 -0.0025509 -0.00256055 -0.00263828 -0.00264566 -0.00263034 -0.00263828 -0.00271731 -0.0027234 -0.00263828 -0.00264566 -0.0027234 -0.00272891 -0.00256055 -0.0025694 -0.00264566 -0.00265225 -0.0025694 -0.00257725 -0.00265225 -0.00265793 -0.00264566 -0.00265225 -0.00272891 -0.00273366 -0.00265225 -0.00265793 -0.00273366 -0.0027376 -0.00271731 -0.0027234 -0.00280213 -0.00280668 -0.0027234 -0.00272891 -0.00280668 -0.00281064 -0.00280213 -0.00280668 -0.0028851 -0.00288836 -0.00280668 -0.00281064 -0.00288836 -0.00289108 -0.00272891 -0.00273366 -0.00281064 -0.00281392 -0.00273366 -0.0027376 -0.00281392 -0.00281647 -0.00281064 -0.00281392 -0.00289108 -0.00289319 -0.00281392 -0.00281647 -0.00289319 -0.00289466 -0.00286954 -0.00287349 -0.00295507 -0.00295803 -0.00287349 -0.00287751 -0.00295803 -0.00296099 -0.00295507 -0.00295803 -0.00303859 -0.00304059 -0.00295803 -0.00296099 -0.00304059 -0.00304255 -0.00287751 -0.00288144 -0.00296099 -0.00296381 -0.00288144 -0.0028851 -0.00296381 -0.00296638 -0.00296099 -0.00296381 -0.00304255 -0.00304439 -0.00296381 -0.00296638 -0.00304439 -0.00304601 -0.00303859 -0.00304059 -0.00312021 -0.00312124 -0.00304059 -0.00304255 -0.00312124 -0.00312224 -0.00312021 -0.00312124 -0.0032 -0.0032 -0.00312124 -0.00312224 -0.0032 -0.0032 -0.00304255 -0.00304439 -0.00312224 -0.00312316 -0.00304439 -0.00304601 -0.00312316 -0.00312394 -0.00312224 -0.00312316 -0.0032 -0.0032 -0.00312316 -0.00312394 -0.0032 -0.0032 -0.0028851 -0.00288836 -0.00296638 -0.00296857 -0.00288836 -0.00289108 -0.00296857 -0.0029703 -0.00296638 -0.00296857 -0.00304601 -0.00304734 -0.00296857 -0.0029703 -0.00304734 -0.0030483 -0.00289108 -0.00289319 -0.0029703 -0.00297151 -0.00289319 -0.00289466 -0.00297151 -0.00297221 -0.0029703 -0.00297151 -0.0030483 -0.00304887 -0.00297151 -0.00297221 -0.00304887 -0.00304905 -0.00304601 -0.00304734 -0.00312394 -0.00312455 -0.00304734 -0.0030483 -0.00312455 -0.00312494 -0.00312394 -0.00312455 -0.0032 -0.0032 -0.00312455 -0.00312494 -0.0032 -0.0032 -0.0030483 -0.00304887 -0.00312494 -0.00312511 -0.00304887 -0.00304905 -0.00312511 -0.00312505 -0.00312494 -0.00312511 -0.0032 -0.0032 -0.00312511 -0.00312505 -0.0032 -0.0032 -0.00160169 -0.00184483 -0.00188997 -0.00194851 -0.00184483 -0.00198912 -0.00194851 -0.00202931 -0.00188997 -0.00194851 -0.00202273 -0.00206704 -0.00194851 -0.00202931 -0.00206704 -0.00210975 -0.00198912 -0.00208706 -0.00202931 -0.00210544 -0.00208706 -0.00216113 -0.00210544 -0.00217048 -0.00202931 -0.00210544 -0.00210975 -0.00215867 -0.00210544 -0.00217048 -0.00215867 -0.00220733 -0.00202273 -0.00206704 -0.00213486 -0.00216475 -0.00206704 -0.00210975 -0.00216475 -0.00219491 -0.00213486 -0.00216475 -0.00223304 -0.00225542 -0.00216475 -0.00219491 -0.00225542 -0.00227703 -0.00210975 -0.00215867 -0.00219491 -0.00222693 -0.00215867 -0.00220733 -0.00222693 -0.00226118 -0.00219491 -0.00222693 -0.00227703 -0.00229966 -0.00222693 -0.00226118 -0.00229966 -0.00232378 -0.00216113 -0.0022201 -0.00217048 -0.00222518 -0.0022201 -0.00226833 -0.00222518 -0.00227121 -0.00217048 -0.00222518 -0.00220733 -0.00225216 -0.00222518 -0.00227121 -0.00225216 -0.00229201 -0.00226833 -0.00230827 -0.00227121 -0.00231001 -0.00230827 -0.0023415 -0.00231001 -0.00234267 -0.00227121 -0.00231001 -0.00229201 -0.00232681 -0.00231001 -0.00234267 -0.00232681 -0.00235681 -0.00220733 -0.00225216 -0.00226118 -0.00229524 -0.00225216 -0.00229201 -0.00229524 -0.00232736 -0.00226118 -0.00229524 -0.00232378 -0.00234878 -0.00229524 -0.00232736 -0.00234878 -0.00237347 -0.00229201 -0.00232681 -0.00232736 -0.00235661 -0.00232681 -0.00235681 -0.00235661 -0.00238261 -0.00232736 -0.00235661 -0.00237347 -0.00239687 -0.00235661 -0.00238261 -0.00239687 -0.00241834 -0.00223304 -0.00225542 -0.00232432 -0.00234112 -0.00225542 -0.00227703 -0.00234112 -0.00235714 -0.00232432 -0.00234112 -0.00241118 -0.00242385 -0.00234112 -0.00235714 -0.00242385 -0.00243572 -0.00227703 -0.00229966 -0.00235714 -0.00237343 -0.00229966 -0.00232378 -0.00237343 -0.00239065 -0.00235714 -0.00237343 -0.00243572 -0.00244751 -0.00237343 -0.00239065 -0.00244751 -0.00245979 -0.00241118 -0.00242385 -0.00249519 -0.00250463 -0.00242385 -0.00243572 -0.00250463 -0.00251331 -0.00249519 -0.00250463 -0.00257725 -0.00258413 -0.00250463 -0.00251331 -0.00258413 -0.00259028 -0.00243572 -0.00244751 -0.00251331 -0.00252172 -0.00244751 -0.00245979 -0.00252172 -0.00253034 -0.00251331 -0.00252172 -0.00259028 -0.0025961 -0.00252172 -0.00253034 -0.0025961 -0.00260192 -0.00232378 -0.00234878 -0.00239065 -0.00240875 -0.00234878 -0.00237347 -0.00240875 -0.00242715 -0.00239065 -0.00240875 -0.00245979 -0.00247272 -0.00240875 -0.00242715 -0.00247272 -0.00248611 -0.00237347 -0.00239687 -0.00242715 -0.00244517 -0.00239687 -0.00241834 -0.00244517 -0.00246218 -0.00242715 -0.00244517 -0.00248611 -0.00249954 -0.00244517 -0.00246218 -0.00249954 -0.00251253 -0.00245979 -0.00247272 -0.00253034 -0.00253939 -0.00247272 -0.00248611 -0.00253939 -0.00254885 -0.00253034 -0.00253939 -0.00260192 -0.00260801 -0.00253939 -0.00254885 -0.00260801 -0.00261443 -0.00248611 -0.00249954 -0.00254885 -0.00255852 -0.00249954 -0.00251253 -0.00255852 -0.00256808 -0.00254885 -0.00255852 -0.00261443 -0.00262109 -0.00255852 -0.00256808 -0.00262109 -0.00262781 -0.0023415 -0.0023691 -0.00234267 -0.00237003 -0.0023691 -0.00239184 -0.00237003 -0.00239273 -0.00234267 -0.00237003 -0.00235681 -0.00238237 -0.00237003 -0.00239273 -0.00238237 -0.00240383 -0.00239184 -0.00241028 -0.00239273 -0.00241125 -0.00241028 -0.00242487 -0.00241125 -0.00242594 -0.00239273 -0.00241125 -0.00240383 -0.00242151 -0.00241125 -0.00242594 -0.00242151 -0.00243564 -0.00235681 -0.00238237 -0.00238261 -0.00240526 -0.00238237 -0.00240383 -0.00240526 -0.0024246 -0.00238261 -0.00240526 -0.00241834 -0.0024375 -0.00240526 -0.0024246 -0.0024375 -0.00245418 -0.00240383 -0.00242151 -0.0024246 -0.00244072 -0.00242151 -0.00243564 -0.00244072 -0.00245373 -0.0024246 -0.00244072 -0.00245418 -0.00246828 -0.00244072 -0.00245373 -0.00246828 -0.00247978 -0.00242487 -0.00243591 -0.00242594 -0.00243711 -0.00243591 -0.00244364 -0.00243711 -0.00244494 -0.00242594 -0.00243711 -0.00243564 -0.00244642 -0.00243711 -0.00244494 -0.00244642 -0.00245402 -0.00244364 -0.00244822 -0.00244494 -0.00244959 -0.00244822 -0.00244973 -0.00244959 -0.00245113 -0.00244494 -0.00244959 -0.00245402 -0.00245853 -0.00244959 -0.00245113 -0.00245853 -0.00246003 -0.00243564 -0.00244642 -0.00245373 -0.00246373 -0.00244642 -0.00245402 -0.00246373 -0.0024708 -0.00245373 -0.00246373 -0.00247978 -0.00248869 -0.00246373 -0.0024708 -0.00248869 -0.00249503 -0.00245402 -0.00245853 -0.0024708 -0.00247501 -0.00245853 -0.00246003 -0.00247501 -0.0024764 -0.0024708 -0.00247501 -0.00249503 -0.00249882 -0.00247501 -0.0024764 -0.00249882 -0.00250006 -0.00241834 -0.0024375 -0.00246218 -0.00247774 -0.0024375 -0.00245418 -0.00247774 -0.00249155 -0.00246218 -0.00247774 -0.00251253 -0.00252469 -0.00247774 -0.00249155 -0.00252469 -0.00253569 -0.00245418 -0.00246828 -0.00249155 -0.00250341 -0.00246828 -0.00247978 -0.00250341 -0.0025132 -0.00249155 -0.00250341 -0.00253569 -0.00254528 -0.00250341 -0.0025132 -0.00254528 -0.0025533 -0.00251253 -0.00252469 -0.00256808 -0.00257721 -0.00252469 -0.00253569 -0.00257721 -0.00258563 -0.00256808 -0.00257721 -0.00262781 -0.00263437 -0.00257721 -0.00258563 -0.00263437 -0.00264053 -0.00253569 -0.00254528 -0.00258563 -0.00259309 -0.00254528 -0.0025533 -0.00259309 -0.0025994 -0.00258563 -0.00259309 -0.00264053 -0.00264608 -0.00259309 -0.0025994 -0.00264608 -0.00265084 -0.00247978 -0.00248869 -0.0025132 -0.00252085 -0.00248869 -0.00249503 -0.00252085 -0.00252632 -0.0025132 -0.00252085 -0.0025533 -0.00255963 -0.00252085 -0.00252632 -0.00255963 -0.00256418 -0.00249503 -0.00249882 -0.00252632 -0.0025296 -0.00249882 -0.00250006 -0.0025296 -0.00253067 -0.00252632 -0.0025296 -0.00256418 -0.00256691 -0.0025296 -0.00253067 -0.00256691 -0.0025678 -0.0025533 -0.00255963 -0.0025994 -0.00260443 -0.00255963 -0.00256418 -0.00260443 -0.00260807 -0.0025994 -0.00260443 -0.00265084 -0.00265467 -0.00260443 -0.00260807 -0.00265467 -0.00265745 -0.00256418 -0.00256691 -0.00260807 -0.00261026 -0.00256691 -0.0025678 -0.00261026 -0.00261095 -0.00260807 -0.00261026 -0.00265745 -0.00265913 -0.00261026 -0.00261095 -0.00265913 -0.00265964 -0.00257725 -0.00258413 -0.00265793 -0.00266275 -0.00258413 -0.00259028 -0.00266275 -0.00266691 -0.00265793 -0.00266275 -0.0027376 -0.00274077 -0.00266275 -0.00266691 -0.00274077 -0.00274334 -0.00259028 -0.0025961 -0.00266691 -0.00267068 -0.0025961 -0.00260192 -0.00267068 -0.00267437 -0.00266691 -0.00267068 -0.00274334 -0.00274553 -0.00267068 -0.00267437 -0.00274553 -0.00274757 -0.0027376 -0.00274077 -0.00281647 -0.00281835 -0.00274077 -0.00274334 -0.00281835 -0.00281969 -0.00281647 -0.00281835 -0.00289466 -0.00289556 -0.00281835 -0.00281969 -0.00289556 -0.00289599 -0.00274334 -0.00274553 -0.00281969 -0.00282067 -0.00274553 -0.00274757 -0.00282067 -0.00282148 -0.00281969 -0.00282067 -0.00289599 -0.0028961 -0.00282067 -0.00282148 -0.0028961 -0.00289605 -0.00260192 -0.00260801 -0.00267437 -0.00267819 -0.00260801 -0.00261443 -0.00267819 -0.00268225 -0.00267437 -0.00267819 -0.00274757 -0.00274967 -0.00267819 -0.00268225 -0.00274967 -0.00275194 -0.00261443 -0.00262109 -0.00268225 -0.00268655 -0.00262109 -0.00262781 -0.00268655 -0.00269099 -0.00268225 -0.00268655 -0.00275194 -0.00275442 -0.00268655 -0.00269099 -0.00275442 -0.00275709 -0.00274757 -0.00274967 -0.00282148 -0.0028223 -0.00274967 -0.00275194 -0.0028223 -0.00282324 -0.00282148 -0.0028223 -0.00289605 -0.00289597 -0.0028223 -0.00282324 -0.00289597 -0.00289599 -0.00275194 -0.00275442 -0.00282324 -0.00282437 -0.00275442 -0.00275709 -0.00282437 -0.0028257 -0.00282324 -0.00282437 -0.00289599 -0.00289618 -0.00282437 -0.0028257 -0.00289618 -0.00289656 -0.00289466 -0.00289556 -0.00297221 -0.00297242 -0.00289556 -0.00289599 -0.00297242 -0.00297225 -0.00297221 -0.00297242 -0.00304905 -0.00304887 -0.00297242 -0.00297225 -0.00304887 -0.00304841 -0.00289599 -0.0028961 -0.00297225 -0.