# vtk DataFile Version 3.0
#This file was generated by the deal.II library on 2018/7/10 at 10:47:05
ASCII
DATASET UNSTRUCTURED_GRID

POINTS 4096 double
0 0.5 0
0.03125 0.5 0
0 0.53125 0
0.03125 0.53125 0
0.03125 0.5 0
0.0625 0.5 0
0.03125 0.53125 0
0.0625 0.53125 0
0 0.53125 0
0.03125 0.53125 0
0 0.5625 0
0.03125 0.5625 0
0.03125 0.53125 0
0.0625 0.53125 0
0.03125 0.5625 0
0.0625 0.5625 0
0.0625 0.5 0
0.09375 0.5 0
0.0625 0.53125 0
0.09375 0.53125 0
0.09375 0.5 0
0.125 0.5 0
0.09375 0.53125 0
0.125 0.53125 0
0.0625 0.53125 0
0.09375 0.53125 0
0.0625 0.5625 0
0.09375 0.5625 0
0.09375 0.53125 0
0.125 0.53125 0
0.09375 0.5625 0
0.125 0.5625 0
0 0.5625 0
0.03125 0.5625 0
0 0.59375 0
0.03125 0.59375 0
0.03125 0.5625 0
0.0625 0.5625 0
0.03125 0.59375 0
0.0625 0.59375 0
0 0.59375 0
0.03125 0.59375 0
0 0.625 0
0.03125 0.625 0
0.03125 0.59375 0
0.0625 0.59375 0
0.03125 0.625 0
0.0625 0.625 0
0.0625 0.5625 0
0.09375 0.5625 0
0.0625 0.59375 0
0.09375 0.59375 0
0.09375 0.5625 0
0.125 0.5625 0
0.09375 0.59375 0
0.125 0.59375 0
0.0625 0.59375 0
0.09375 0.59375 0
0.0625 0.625 0
0.09375 0.625 0
0.09375 0.59375 0
0.125 0.59375 0
0.09375 0.625 0
0.125 0.625 0
0.125 0.5 0
0.15625 0.5 0
0.125 0.53125 0
0.15625 0.53125 0
0.15625 0.5 0
0.1875 0.5 0
0.15625 0.53125 0
0.1875 0.53125 0
0.125 0.53125 0
0.15625 0.53125 0
0.125 0.5625 0
0.15625 0.5625 0
0.15625 0.53125 0
0.1875 0.53125 0
0.15625 0.5625 0
0.1875 0.5625 0
0.1875 0.5 0
0.21875 0.5 0
0.1875 0.53125 0
0.21875 0.53125 0
0.21875 0.5 0
0.25 0.5 0
0.21875 0.53125 0
0.25 0.53125 0
0.1875 0.53125 0
0.21875 0.53125 0
0.1875 0.5625 0
0.21875 0.5625 0
0.21875 0.53125 0
0.25 0.53125 0
0.21875 0.5625 0
0.25 0.5625 0
0.125 0.5625 0
0.15625 0.5625 0
0.125 0.59375 0
0.15625 0.59375 0
0.15625 0.5625 0
0.1875 0.5625 0
0.15625 0.59375 0
0.1875 0.59375 0
0.125 0.59375 0
0.15625 0.59375 0
0.125 0.625 0
0.15625 0.625 0
0.15625 0.59375 0
0.1875 0.59375 0
0.15625 0.625 0
0.1875 0.625 0
0.1875 0.5625 0
0.21875 0.5625 0
0.1875 0.59375 0
0.21875 0.59375 0
0.21875 0.5625 0
0.25 0.5625 0
0.21875 0.59375 0
0.25 0.59375 0
0.1875 0.59375 0
0.21875 0.59375 0
0.1875 0.625 0
0.21875 0.625 0
0.21875 0.59375 0
0.25 0.59375 0
0.21875 0.625 0
0.25 0.625 0
0 0.625 0
0.03125 0.625 0
0 0.65625 0
0.03125 0.65625 0
0.03125 0.625 0
0.0625 0.625 0
0.03125 0.65625 0
0.0625 0.65625 0
0 0.65625 0
0.03125 0.65625 0
0 0.6875 0
0.03125 0.6875 0
0.03125 0.65625 0
0.0625 0.65625 0
0.03125 0.6875 0
0.0625 0.6875 0
0.0625 0.625 0
0.09375 0.625 0
0.0625 0.65625 0
0.09375 0.65625 0
0.09375 0.625 0
0.125 0.625 0
0.09375 0.65625 0
0.125 0.65625 0
0.0625 0.65625 0
0.09375 0.65625 0
0.0625 0.6875 0
0.09375 0.6875 0
0.09375 0.65625 0
0.125 0.65625 0
0.09375 0.6875 0
0.125 0.6875 0
0 0.6875 0
0.03125 0.6875 0
0 0.71875 0
0.03125 0.71875 0
0.03125 0.6875 0
0.0625 0.6875 0
0.03125 0.71875 0
0.0625 0.71875 0
0 0.71875 0
0.03125 0.71875 0
0 0.75 0
0.03125 0.75 0
0.03125 0.71875 0
0.0625 0.71875 0
0.03125 0.75 0
0.0625 0.75 0
0.0625 0.6875 0
0.09375 0.6875 0
0.0625 0.71875 0
0.09375 0.71875 0
0.09375 0.6875 0
0.125 0.6875 0
0.09375 0.71875 0
0.125 0.71875 0
0.0625 0.71875 0
0.09375 0.71875 0
0.0625 0.75 0
0.09375 0.75 0
0.09375 0.71875 0
0.125 0.71875 0
0.09375 0.75 0
0.125 0.75 0
0.125 0.625 0
0.15625 0.625 0
0.125 0.65625 0
0.15625 0.65625 0
0.15625 0.625 0
0.1875 0.625 0
0.15625 0.65625 0
0.1875 0.65625 0
0.125 0.65625 0
0.15625 0.65625 0
0.125 0.6875 0
0.15625 0.6875 0
0.15625 0.65625 0
0.1875 0.65625 0
0.15625 0.6875 0
0.1875 0.6875 0
0.1875 0.625 0
0.21875 0.625 0
0.1875 0.65625 0
0.21875 0.65625 0
0.21875 0.625 0
0.25 0.625 0
0.21875 0.65625 0
0.25 0.65625 0
0.1875 0.65625 0
0.21875 0.65625 0
0.1875 0.6875 0
0.21875 0.6875 0
0.21875 0.65625 0
0.25 0.65625 0
0.21875 0.6875 0
0.25 0.6875 0
0.125 0.6875 0
0.15625 0.6875 0
0.125 0.71875 0
0.15625 0.71875 0
0.15625 0.6875 0
0.1875 0.6875 0
0.15625 0.71875 0
0.1875 0.71875 0
0.125 0.71875 0
0.15625 0.71875 0
0.125 0.75 0
0.15625 0.75 0
0.15625 0.71875 0
0.1875 0.71875 0
0.15625 0.75 0
0.1875 0.75 0
0.1875 0.6875 0
0.21875 0.6875 0
0.1875 0.71875 0
0.21875 0.71875 0
0.21875 0.6875 0
0.25 0.6875 0
0.21875 0.71875 0
0.25 0.71875 0
0.1875 0.71875 0
0.21875 0.71875 0
0.1875 0.75 0
0.21875 0.75 0
0.21875 0.71875 0
0.25 0.71875 0
0.21875 0.75 0
0.25 0.75 0
0.25 0.5 0
0.28125 0.5 0
0.25 0.53125 0
0.28125 0.53125 0
0.28125 0.5 0
0.3125 0.5 0
0.28125 0.53125 0
0.3125 0.53125 0
0.25 0.53125 0
0.28125 0.53125 0
0.25 0.5625 0
0.28125 0.5625 0
0.28125 0.53125 0
0.3125 0.53125 0
0.28125 0.5625 0
0.3125 0.5625 0
0.3125 0.5 0
0.34375 0.5 0
0.3125 0.53125 0
0.34375 0.53125 0
0.34375 0.5 0
0.375 0.5 0
0.34375 0.53125 0
0.375 0.53125 0
0.3125 0.53125 0
0.34375 0.53125 0
0.3125 0.5625 0
0.34375 0.5625 0
0.34375 0.53125 0
0.375 0.53125 0
0.34375 0.5625 0
0.375 0.5625 0
0.25 0.5625 0
0.28125 0.5625 0
0.25 0.59375 0
0.28125 0.59375 0
0.28125 0.5625 0
0.3125 0.5625 0
0.28125 0.59375 0
0.3125 0.59375 0
0.25 0.59375 0
0.28125 0.59375 0
0.25 0.625 0
0.28125 0.625 0
0.28125 0.59375 0
0.3125 0.59375 0
0.28125 0.625 0
0.3125 0.625 0
0.3125 0.5625 0
0.34375 0.5625 0
0.3125 0.59375 0
0.34375 0.59375 0
0.34375 0.5625 0
0.375 0.5625 0
0.34375 0.59375 0
0.375 0.59375 0
0.3125 0.59375 0
0.34375 0.59375 0
0.3125 0.625 0
0.34375 0.625 0
0.34375 0.59375 0
0.375 0.59375 0
0.34375 0.625 0
0.375 0.625 0
0.375 0.5 0
0.40625 0.5 0
0.375 0.53125 0
0.40625 0.53125 0
0.40625 0.5 0
0.4375 0.5 0
0.40625 0.53125 0
0.4375 0.53125 0
0.375 0.53125 0
0.40625 0.53125 0
0.375 0.5625 0
0.40625 0.5625 0
0.40625 0.53125 0
0.4375 0.53125 0
0.40625 0.5625 0
0.4375 0.5625 0
0.4375 0.5 0
0.46875 0.5 0
0.4375 0.53125 0
0.46875 0.53125 0
0.46875 0.5 0
0.5 0.5 0
0.46875 0.53125 0
0.5 0.53125 0
0.4375 0.53125 0
0.46875 0.53125 0
0.4375 0.5625 0
0.46875 0.5625 0
0.46875 0.53125 0
0.5 0.53125 0
0.46875 0.5625 0
0.5 0.5625 0
0.375 0.5625 0
0.40625 0.5625 0
0.375 0.59375 0
0.40625 0.59375 0
0.40625 0.5625 0
0.4375 0.5625 0
0.40625 0.59375 0
0.4375 0.59375 0
0.375 0.59375 0
0.40625 0.59375 0
0.375 0.625 0
0.40625 0.625 0
0.40625 0.59375 0
0.4375 0.59375 0
0.40625 0.625 0
0.4375 0.625 0
0.4375 0.5625 0
0.46875 0.5625 0
0.4375 0.59375 0
0.46875 0.59375 0
0.46875 0.5625 0
0.5 0.5625 0
0.46875 0.59375 0
0.5 0.59375 0
0.4375 0.59375 0
0.46875 0.59375 0
0.4375 0.625 0
0.46875 0.625 0
0.46875 0.59375 0
0.5 0.59375 0
0.46875 0.625 0
0.5 0.625 0
0.25 0.625 0
0.28125 0.625 0
0.25 0.65625 0
0.28125 0.65625 0
0.28125 0.625 0
0.3125 0.625 0
0.28125 0.65625 0
0.3125 0.65625 0
0.25 0.65625 0
0.28125 0.65625 0
0.25 0.6875 0
0.28125 0.6875 0
0.28125 0.65625 0
0.3125 0.65625 0
0.28125 0.6875 0
0.3125 0.6875 0
0.3125 0.625 0
0.34375 0.625 0
0.3125 0.65625 0
0.34375 0.65625 0
0.34375 0.625 0
0.375 0.625 0
0.34375 0.65625 0
0.375 0.65625 0
0.3125 0.65625 0
0.34375 0.65625 0
0.3125 0.6875 0
0.34375 0.6875 0
0.34375 0.65625 0
0.375 0.65625 0
0.34375 0.6875 0
0.375 0.6875 0
0.25 0.6875 0
0.28125 0.6875 0
0.25 0.71875 0
0.28125 0.71875 0
0.28125 0.6875 0
0.3125 0.6875 0
0.28125 0.71875 0
0.3125 0.71875 0
0.25 0.71875 0
0.28125 0.71875 0
0.25 0.75 0
0.28125 0.75 0
0.28125 0.71875 0
0.3125 0.71875 0
0.28125 0.75 0
0.3125 0.75 0
0.3125 0.6875 0
0.34375 0.6875 0
0.3125 0.71875 0
0.34375 0.71875 0
0.34375 0.6875 0
0.375 0.6875 0
0.34375 0.71875 0
0.375 0.71875 0
0.3125 0.71875 0
0.34375 0.71875 0
0.3125 0.75 0
0.34375 0.75 0
0.34375 0.71875 0
0.375 0.71875 0
0.34375 0.75 0
0.375 0.75 0
0.375 0.625 0
0.40625 0.625 0
0.375 0.65625 0
0.40625 0.65625 0
0.40625 0.625 0
0.4375 0.625 0
0.40625 0.65625 0
0.4375 0.65625 0
0.375 0.65625 0
0.40625 0.65625 0
0.375 0.6875 0
0.40625 0.6875 0
0.40625 0.65625 0
0.4375 0.65625 0
0.40625 0.6875 0
0.4375 0.6875 0
0.4375 0.625 0
0.46875 0.625 0
0.4375 0.65625 0
0.46875 0.65625 0
0.46875 0.625 0
0.5 0.625 0
0.46875 0.65625 0
0.5 0.65625 0
0.4375 0.65625 0
0.46875 0.65625 0
0.4375 0.6875 0
0.46875 0.6875 0
0.46875 0.65625 0
0.5 0.65625 0
0.46875 0.6875 0
0.5 0.6875 0
0.375 0.6875 0
0.40625 0.6875 0
0.375 0.71875 0
0.40625 0.71875 0
0.40625 0.6875 0
0.4375 0.6875 0
0.40625 0.71875 0
0.4375 0.71875 0
0.375 0.71875 0
0.40625 0.71875 0
0.375 0.75 0
0.40625 0.75 0
0.40625 0.71875 0
0.4375 0.71875 0
0.40625 0.75 0
0.4375 0.75 0
0.4375 0.6875 0
0.46875 0.6875 0
0.4375 0.71875 0
0.46875 0.71875 0
0.46875 0.6875 0
0.5 0.6875 0
0.46875 0.71875 0
0.5 0.71875 0
0.4375 0.71875 0
0.46875 0.71875 0
0.4375 0.75 0
0.46875 0.75 0
0.46875 0.71875 0
0.5 0.71875 0
0.46875 0.75 0
0.5 0.75 0
0 0.75 0
0.03125 0.75 0
0 0.78125 0
0.03125 0.78125 0
0.03125 0.75 0
0.0625 0.75 0
0.03125 0.78125 0
0.0625 0.78125 0
0 0.78125 0
0.03125 0.78125 0
0 0.8125 0
0.03125 0.8125 0
0.03125 0.78125 0
0.0625 0.78125 0
0.03125 0.8125 0
0.0625 0.8125 0
0.0625 0.75 0
0.09375 0.75 0
0.0625 0.78125 0
0.09375 0.78125 0
0.09375 0.75 0
0.125 0.75 0
0.09375 0.78125 0
0.125 0.78125 0
0.0625 0.78125 0
0.09375 0.78125 0
0.0625 0.8125 0
0.09375 0.8125 0
0.09375 0.78125 0
0.125 0.78125 0
0.09375 0.8125 0
0.125 0.8125 0
0 0.8125 0
0.03125 0.8125 0
0 0.84375 0
0.03125 0.84375 0
0.03125 0.8125 0
0.0625 0.8125 0
0.03125 0.84375 0
0.0625 0.84375 0
0 0.84375 0
0.03125 0.84375 0
0 0.875 0
0.03125 0.875 0
0.03125 0.84375 0
0.0625 0.84375 0
0.03125 0.875 0
0.0625 0.875 0
0.0625 0.8125 0
0.09375 0.8125 0
0.0625 0.84375 0
0.09375 0.84375 0
0.09375 0.8125 0
0.125 0.8125 0
0.09375 0.84375 0
0.125 0.84375 0
0.0625 0.84375 0
0.09375 0.84375 0
0.0625 0.875 0
0.09375 0.875 0
0.09375 0.84375 0
0.125 0.84375 0
0.09375 0.875 0
0.125 0.875 0
0.125 0.75 0
0.15625 0.75 0
0.125 0.78125 0
0.15625 0.78125 0
0.15625 0.75 0
0.1875 0.75 0
0.15625 0.78125 0
0.1875 0.78125 0
0.125 0.78125 0
0.15625 0.78125 0
0.125 0.8125 0
0.15625 0.8125 0
0.15625 0.78125 0
0.1875 0.78125 0
0.15625 0.8125 0
0.1875 0.8125 0
0.1875 0.75 0
0.21875 0.75 0
0.1875 0.78125 0
0.21875 0.78125 0
0.21875 0.75 0
0.25 0.75 0
0.21875 0.78125 0
0.25 0.78125 0
0.1875 0.78125 0
0.21875 0.78125 0
0.1875 0.8125 0
0.21875 0.8125 0
0.21875 0.78125 0
0.25 0.78125 0
0.21875 0.8125 0
0.25 0.8125 0
0.125 0.8125 0
0.15625 0.8125 0
0.125 0.84375 0
0.15625 0.84375 0
0.15625 0.8125 0
[...]
POINT_DATA 4096
SCALARS State_InstatPDEProblemContainer_0 double 1
LOOKUP_TABLE default
-0.0021789 -0.00217751 -0.0023306 -0.0023294 -0.00217751 -0.00217623 -0.0023294 -0.00232866 -0.0023306 -0.0023294 -0.00248128 -0.00248028 -0.0023294 -0.00232866 -0.00248028 -0.00248006 -0.00217623 -0.00217505 -0.00232866 -0.00232839 -0.00217505 -0.00217396 -0.00232839 -0.00232861 -0.00232866 -0.00232839 -0.00248006 -0.00248064 -0.00232839 -0.00232861 -0.00248064 -0.00248207 -0.00248128 -0.00248028 -0.00263032 -0.00262951 -0.00248028 -0.00248006 -0.00262951 -0.00262974 -0.00263032 -0.00262951 -0.00277715 -0.00277651 -0.00262951 -0.00262974 -0.00277651 -0.00277712 -0.00248006 -0.00248064 -0.00262974 -0.00263105 -0.00248064 -0.00248207 -0.00263105 -0.00263351 -0.00262974 -0.00263105 -0.00277712 -0.002779 -0.00263105 -0.00263351 -0.002779 -0.00278224 -0.00217396 -0.00217294 -0.00232861 -0.00232936 -0.00217294 -0.00217199 -0.00232936 -0.00233072 -0.00232861 -0.00232936 -0.00248207 -0.00248444 -0.00232936 -0.00233072 -0.00248444 -0.00248789 -0.00217199 -0.0021711 -0.00233072 -0.0023328 -0.0021711 -0.00217026 -0.0023328 -0.00233577 -0.00233072 -0.0023328 -0.00248789 -0.00249261 -0.0023328 -0.00233577 -0.00249261 -0.0024989 -0.00248207 -0.00248444 -0.00263351 -0.00263722 -0.00248444 -0.00248789 -0.00263722 -0.00264236 -0.00263351 -0.00263722 -0.00278224 -0.00278694 -0.00263722 -0.00264236 -0.00278694 -0.00279329 -0.00248789 -0.00249261 -0.00264236 -0.00264917 -0.00249261 -0.0024989 -0.00264917 -0.00265799 -0.00264236 -0.00264917 -0.00279329 -0.00280152 -0.00264917 -0.00265799 -0.00280152 -0.00281192 -0.00277715 -0.00277651 -0.00292131 -0.00292082 -0.00277651 -0.00277712 -0.00292082 -0.0029217 -0.00292131 -0.00292082 -0.00306247 -0.0030621 -0.00292082 -0.0029217 -0.0030621 -0.00306316 -0.00277712 -0.002779 -0.0029217 -0.00292399 -0.002779 -0.00278224 -0.00292399 -0.00292774 -0.0029217 -0.00292399 -0.00306316 -0.00306566 -0.00292399 -0.00292774 -0.00306566 -0.00306968 -0.00306247 -0.0030621 -0.0032004 -0.00320011 -0.0030621 -0.00306316 -0.00320011 -0.00320125 -0.0032004 -0.00320011 -0.00333498 -0.00333474 -0.00320011 -0.00320125 -0.00333474 -0.00333588 -0.00306316 -0.00306566 -0.00320125 -0.00320382 -0.00306566 -0.00306968 -0.00320382 -0.00320787 -0.00320125 -0.00320382 -0.00333588 -0.00333839 -0.00320382 -0.00320787 -0.00333839 -0.00334229 -0.00278224 -0.00278694 -0.00292774 -0.00293307 -0.00278694 -0.00279329 -0.00293307 -0.00294013 -0.00292774 -0.00293307 -0.00306968 -0.00307528 -0.00293307 -0.00294013 -0.00307528 -0.00308258 -0.00279329 -0.00280152 -0.00294013 -0.00294909 -0.00280152 -0.00281192 -0.00294909 -0.00296018 -0.00294013 -0.00294909 -0.00308258 -0.00309169 -0.00294909 -0.00296018 -0.00309169 -0.00310273 -0.00306968 -0.00307528 -0.00320787 -0.00321345 -0.00307528 -0.00308258 -0.00321345 -0.00322061 -0.00320787 -0.00321345 -0.00334229 -0.0033476 -0.00321345 -0.00322061 -0.0033476 -0.00335433 -0.00308258 -0.00309169 -0.00322061 -0.0032294 -0.00309169 -0.00310273 -0.0032294 -0.00323986 -0.00322061 -0.0032294 -0.00335433 -0.00336248 -0.0032294 -0.00323986 -0.00336248 -0.00337199 -0.00217026 -0.00216948 -0.00233577 -0.00233988 -0.00216948 -0.00216874 -0.00233988 -0.00234552 -0.00233577 -0.00233988 -0.0024989 -0.00250718 -0.00233988 -0.00234552 -0.00250718 -0.00251808 -0.00216874 -0.00216804 -0.00234552 -0.00235334 -0.00216804 -0.00216734 -0.00235334 -0.00236442 -0.00234552 -0.00235334 -0.00251808 -0.00253255 -0.00235334 -0.00236442 -0.00253255 -0.00255206 -0.0024989 -0.00250718 -0.00265799 -0.00266927 -0.00250718 -0.00251808 -0.00266927 -0.00268365 -0.00265799 -0.00266927 -0.00281192 -0.00282489 -0.00266927 -0.00268365 -0.00282489 -0.0028409 -0.00251808 -0.00253255 -0.00268365 -0.00270199 -0.00253255 -0.00255206 -0.00270199 -0.00272543 -0.00268365 -0.00270199 -0.0028409 -0.0028605 -0.00270199 -0.00272543 -0.0028605 -0.0028842 -0.00216734 -0.00216662 -0.00236442 -0.00238081 -0.00216662 -0.00216574 -0.00238081 -0.00240687 -0.00236442 -0.00238081 -0.00255206 -0.00257899 -0.00238081 -0.00240687 -0.00257899 -0.00261681 -0.00216574 -0.00216435 -0.00240687 -0.00245231 -0.00216435 -0.00216288 -0.00245231 -0.00254966 -0.00240687 -0.00245231 -0.00261681 -0.00267069 -0.00245231 -0.00254966 -0.00267069 -0.00272715 -0.00255206 -0.00257899 -0.00272543 -0.00275525 -0.00257899 -0.00261681 -0.00275525 -0.00279245 -0.00272543 -0.00275525 -0.0028842 -0.0029122 -0.00275525 -0.00279245 -0.0029122 -0.00294363 -0.00261681 -0.00267069 -0.00279245 -0.00283419 -0.00267069 -0.00272715 -0.00283419 -0.00287701 -0.00279245 -0.00283419 -0.00294363 -0.00297655 -0.00283419 -0.00287701 -0.00297655 -0.0030082 -0.00281192 -0.00282489 -0.00296018 -0.00297366 -0.00282489 -0.0028409 -0.00297366 -0.00298979 -0.00296018 -0.00297366 -0.00310273 -0.00311583 -0.00297366 -0.00298979 -0.00311583 -0.00313104 -0.0028409 -0.0028605 -0.00298979 -0.00300877 -0.0028605 -0.0028842 -0.00300877 -0.0030306 -0.00298979 -0.00300877 -0.00313104 -0.0031483 -0.00300877 -0.0030306 -0.0031483 -0.00316735 -0.00310273 -0.00311583 -0.00323986 -0.00325197 -0.00311583 -0.00313104 -0.00325197 -0.00326566 -0.00323986 -0.00325197 -0.00337199 -0.00338279 -0.00325197 -0.00326566 -0.00338279 -0.00339469 -0.00313104 -0.0031483 -0.00326566 -0.00328072 -0.0031483 -0.00316735 -0.00328072 -0.00329678 -0.00326566 -0.00328072 -0.00339469 -0.00340743 -0.00328072 -0.00329678 -0.00340743 -0.00342062 -0.0028842 -0.0029122 -0.0030306 -0.00305486 -0.0029122 -0.00294363 -0.00305486 -0.00308054 -0.0030306 -0.00305486 -0.00316735 -0.00318759 -0.00305486 -0.00308054 -0.00318759 -0.00320812 -0.00294363 -0.00297655 -0.00308054 -0.00310608 -0.00297655 -0.0030082 -0.00310608 -0.00313015 -0.00308054 -0.00310608 -0.00320812 -0.00322791 -0.00310608 -0.00313015 -0.00322791 -0.00324618 -0.00316735 -0.00318759 -0.00329678 -0.00331325 -0.00318759 -0.00320812 -0.00331325 -0.00332943 -0.00329678 -0.00331325 -0.00342062 -0.00343376 -0.00331325 -0.00332943 -0.00343376 -0.00344632 -0.00320812 -0.00322791 -0.00332943 -0.00334463 -0.00322791 -0.00324618 -0.00334463 -0.0033584 -0.00332943 -0.00334463 -0.00344632 -0.00345782 -0.00334463 -0.0033584 -0.00345782 -0.00346802 -0.00333498 -0.00333474 -0.00346617 -0.00346597 -0.00333474 -0.00333588 -0.00346597 -0.00346703 -0.00346617 -0.00346597 -0.00359403 -0.00359383 -0.00346597 -0.00346703 -0.00359383 -0.00359478 -0.00333588 -0.00333839 -0.00346703 -0.00346937 -0.00333839 -0.00334229 -0.00346937 -0.00347299 -0.00346703 -0.00346937 -0.00359478 -0.00359688 -0.00346937 -0.00347299 -0.00359688 -0.0036001 -0.00359403 -0.00359383 -0.00371867 -0.00371846 -0.00359383 -0.00359478 -0.00371846 -0.00371926 -0.00371867 -0.00371846 -0.00384026 -0.00384002 -0.00371846 -0.00371926 -0.00384002 -0.00384063 -0.00359478 -0.00359688 -0.00371926 -0.00372105 -0.00359688 -0.0036001 -0.00372105 -0.00372382 -0.00371926 -0.00372105 -0.00384063 -0.00384209 -0.00372105 -0.00372382 -0.00384209 -0.00384436 -0.00334229 -0.0033476 -0.00347299 -0.00347786 -0.0033476 -0.00335433 -0.00347786 -0.00348397 -0.00347299 -0.00347786 -0.0036001 -0.00360442 -0.00347786 -0.00348397 -0.00360442 -0.00360979 -0.00335433 -0.00336248 -0.00348397 -0.00349126 -0.00336248 -0.00337199 -0.00349126 -0.00349964 -0.00348397 -0.00349126 -0.00360979 -0.00361611 -0.00349126 -0.00349964 -0.00361611 -0.00362328 -0.0036001 -0.00360442 -0.00372382 -0.00372752 -0.00360442 -0.00360979 -0.00372752 -0.00373207 -0.00372382 -0.00372752 -0.00384436 -0.00384739 -0.00372752 -0.00373207 -0.00384739 -0.00385111 -0.00360979 -0.00361611 -0.00373207 -0.00373739 -0.00361611 -0.00362328 -0.00373739 -0.00374333 -0.00373207 -0.00373739 -0.00385111 -0.00385541 -0.00373739 -0.00374333 -0.00385541 -0.00386016 -0.00384026 -0.00384002 -0.003959 -0.00395872 -0.00384002 -0.00384063 -0.00395872 -0.00395912 -0.003959 -0.00395872 -0.00407511 -0.00407478 -0.00395872 -0.00395912 -0.00407478 -0.00407497 -0.00384063 -0.00384209 -0.00395912 -0.00396021 -0.00384209 -0.00384436 -0.00396021 -0.00396196 -0.00395912 -0.00396021 -0.00407497 -0.00407569 -0.00396021 -0.00396196 -0.00407569 -0.00407689 -0.00407511 -0.00407478 -0.00418884 -0.00418842 -0.00407478 -0.00407497 -0.00418842 -0.00418846 -0.00418884 -0.00418842 -0.0043 -0.0043 -0.00418842 -0.00418846 -0.0043 -0.0043 -0.00407497 -0.00407569 -0.00418846 -0.00418882 -0.00407569 -0.00407689 -0.00418882 -0.00418945 -0.00418846 -0.00418882 -0.0043 -0.0043 -0.00418882 -0.00418945 -0.0043 -0.0043 -0.00384436 -0.00384739 -0.00396196 -0.0039643 -0.00384739 -0.00385111 -0.0039643 -0.00396717 -0.00396196 -0.0039643 -0.00407689 -0.00407852 -0.0039643 -0.00396717 -0.00407852 -0.0040805 -0.00385111 -0.00385541 -0.00396717 -0.00397045 -0.00385541 -0.00386016 -0.00397045 -0.00397405 -0.00396717 -0.00397045 -0.0040805 -0.00408276 -0.00397045 -0.00397405 -0.00408276 -0.00408522 -0.00407689 -0.00407852 -0.00418945 -0.00419031 -0.00407852 -0.0040805 -0.00419031 -0.00419136 -0.00418945 -0.00419031 -0.0043 -0.0043 -0.00419031 -0.00419136 -0.0043 -0.0043 -0.0040805 -0.00408276 -0.00419136 -0.00419255 -0.00408276 -0.00408522 -0.00419255 -0.00419383 -0.00419136 -0.00419255 -0.0043 -0.0043 -0.00419255 -0.00419383 -0.0043 -0.0043 -0.00337199 -0.00338279 -0.00349964 -0.00350897 -0.00338279 -0.00339469 -0.00350897 -0.00351903 -0.00349964 -0.00350897 -0.00362328 -0.00363111 -0.00350897 -0.00351903 -0.00363111 -0.00363939 -0.00339469 -0.00340743 -0.00351903 -0.00352953 -0.00340743 -0.00342062 -0.00352953 -0.00354013 -0.00351903 -0.00352953 -0.00363939 -0.00364785 -0.00352953 -0.00354013 -0.00364785 -0.00365616 -0.00362328 -0.00363111 -0.00374333 -0.00374973 -0.00363111 -0.00363939 -0.00374973 -0.00375636 -0.00374333 -0.00374973 -0.00386016 -0.00386519 -0.00374973 -0.00375636 -0.00386519 -0.00387032 -0.00363939 -0.00364785 -0.00375636 -0.00376298 -0.00364785 -0.00365616 -0.00376298 -0.00376933 -0.00375636 -0.00376298 -0.00387032 -0.00387533 -0.00376298 -0.00376933 -0.00387533 -0.00388001 -0.00342062 -0.00343376 -0.00354013 -0.0035504 -0.00343376 -0.00344632 -0.0035504 -0.00355995 -0.00354013 -0.0035504 -0.00365616 -0.00366401 -0.0035504 -0.00355995 -0.00366401 -0.00367109 -0.00344632 -0.00345782 -0.00355995 -0.00356846 -0.00345782 -0.00346802 -0.00356846 -0.00357579 -0.00355995 -0.00356846 -0.00367109 -0.00367718 -0.00356846 -0.00357579 -0.00367718 -0.00368221 -0.00365616 -0.00366401 -0.00376933 -0.00377515 -0.00366401 -0.00367109 -0.00377515 -0.00378021 -0.00376933 -0.00377515 -0.00388001 -0.00388415 -0.00377515 -0.00378021 -0.00388415 -0.00388758 -0.00367109 -0.00367718 -0.00378021 -0.00378436 -0.00367718 -0.00368221 -0.00378436 -0.00378757 -0.00378021 -0.00378436 -0.00388758 -0.00389022 -0.00378436 -0.00378757 -0.00389022 -0.00389203 -0.00386016 -0.00386519 -0.00397405 -0.0039778 -0.00386519 -0.00387032 -0.0039778 -0.00398157 -0.00397405 -0.0039778 -0.00408522 -0.00408775 -0.0039778 -0.00398157 -0.00408775 -0.00409025 -0.00387032 -0.00387533 -0.00398157 -0.00398516 -0.00387533 -0.00388001 -0.00398516 -0.00398842 -0.00398157 -0.00398516 -0.00409025 -0.00409258 -0.00398516 -0.00398842 -0.00409258 -0.00409463 -0.00408522 -0.00408775 -0.00419383 -0.00419514 -0.00408775 -0.00409025 -0.00419514 -0.00419641 -0.00419383 -0.00419514 -0.0043 -0.0043 -0.00419514 -0.00419641 -0.0043 -0.0043 -0.00409025 -0.00409258 -0.00419641 -0.00419757 -0.00409258 -0.00409463 -0.00419757 -0.00419856 -0.00419641 -0.00419757 -0.0043 -0.0043 -0.00419757 -0.00419856 -0.0043 -0.0043 -0.00388001 -0.00388415 -0.00398842 -0.00399119 -0.00388415 -0.00388758 -0.00399119 -0.00399334 -0.00398842 -0.00399119 -0.00409463 -0.00409628 -0.00399119 -0.00399334 -0.00409628 -0.00409747 -0.00388758 -0.00389022 -0.00399334 -0.00399483 -0.00389022 -0.00389203 -0.00399483 -0.00399563 -0.00399334 -0.00399483 -0.00409747 -0.00409814 -0.00399483 -0.00399563 -0.00409814 -0.00409829 -0.00409463 -0.00409628 -0.00419856 -0.00419932 -0.00409628 -0.00409747 -0.00419932 -0.00419979 -0.00419856 -0.00419932 -0.0043 -0.0043 -0.00419932 -0.00419979 -0.0043 -0.0043 -0.00409747 -0.00409814 -0.00419979 -0.00419997 -0.00409814 -0.00409829 -0.00419997 -0.00419985 -0.00419979 -0.00419997 -0.0043 -0.0043 -0.00419997 -0.00419985 -0.0043 -0.0043 -0.00216288 -0.00248844 -0.00254966 -0.00262761 -0.00248844 -0.00268155 -0.00262761 -0.00273548 -0.00254966 -0.00262761 -0.00272715 -0.00278608 -0.00262761 -0.00273548 -0.00278608 -0.00284299 -0.00268155 -0.00281245 -0.00273548 -0.00283708 -0.00281245 -0.00291133 -0.00283708 -0.00292386 -0.00273548 -0.00283708 -0.00284299 -0.00290822 -0.00283708 -0.00292386 -0.00290822 -0.0029731 -0.00272715 -0.00278608 -0.00287701 -0.00291666 -0.00278608 -0.00284299 -0.00291666 -0.00295675 -0.00287701 -0.00291666 -0.0030082 -0.00303781 -0.00291666 -0.00295675 -0.00303781 -0.00306646 -0.00284299 -0.00290822 -0.00295675 -0.00299939 -0.00290822 -0.0029731 -0.00299939 -0.003045 -0.00295675 -0.00299939 -0.00306646 -0.00309652 -0.00299939 -0.003045 -0.00309652 -0.0031286 -0.00291133 -0.00299 -0.00292386 -0.00299682 -0.00299 -0.0030543 -0.00299682 -0.00305818 -0.00292386 -0.00299682 -0.0029731 -0.00303285 -0.00299682 -0.00305818 -0.00303285 -0.00308597 -0.0030543 -0.00310753 -0.00305818 -0.00310988 -0.00310753 -0.0031518 -0.00310988 -0.0031534 -0.00305818 -0.00310988 -0.00308597 -0.00313233 -0.00310988 -0.0031534 -0.00313233 -0.0031723 -0.0029731 -0.00303285 -0.003045 -0.00309038 -0.00303285 -0.00308597 -0.00309038 -0.00313317 -0.003045 -0.00309038 -0.0031286 -0.00316187 -0.00309038 -0.00313317 -0.00316187 -0.00319474 -0.00308597 -0.00313233 -0.00313317 -0.00317213 -0.00313233 -0.0031723 -0.00317213 -0.00320676 -0.00313317 -0.00317213 -0.00319474 -0.00322589 -0.00317213 -0.00320676 -0.00322589 -0.00325446 -0.0030082 -0.00303781 -0.00313015 -0.0031523 -0.00303781 -0.00306646 -0.0031523 -0.00317348 -0.00313015 -0.0031523 -0.00324618 -0.00326283 -0.0031523 -0.00317348 -0.00326283 -0.00327845 -0.00306646 -0.00309652 -0.00317348 -0.00319505 -0.00309652 -0.0031286 -0.00319505 -0.00321791 -0.00317348 -0.00319505 -0.00327845 -0.00329401 -0.00319505 -0.00321791 -0.00329401 -0.00331026 -0.00324618 -0.00326283 -0.0033584 -0.00337075 -0.00326283 -0.00327845 -0.00337075 -0.00338211 -0.0033584 -0.00337075 -0.00346802 -0.00347695 -0.00337075 -0.00338211 -0.00347695 -0.00348496 -0.00327845 -0.00329401 -0.00338211 -0.00339316 -0.00329401 -0.00331026 -0.00339316 -0.00340452 -0.00338211 -0.00339316 -0.00348496 -0.00349254 -0.00339316 -0.00340452 -0.00349254 -0.00350017 -0.0031286 -0.00316187 -0.00321791 -0.00324195 -0.00316187 -0.00319474 -0.00324195 -0.00326643 -0.00321791 -0.00324195 -0.00331026 -0.00332741 -0.00324195 -0.00326643 -0.00332741 -0.00334517 -0.00319474 -0.00322589 -0.00326643 -0.00329038 -0.00322589 -0.00325446 -0.00329038 -0.00331301 -0.00326643 -0.00329038 -0.00334517 -0.003363 -0.00329038 -0.00331301 -0.003363 -0.00338026 -0.00331026 -0.00332741 -0.00340452 -0.00341647 -0.00332741 -0.00334517 -0.00341647 -0.00342899 -0.00340452 -0.00341647 -0.00350017 -0.00350817 -0.00341647 -0.00342899 -0.00350817 -0.00351663 -0.00334517 -0.003363 -0.00342899 -0.0034418 -0.003363 -0.00338026 -0.0034418 -0.00345447 -0.00342899 -0.0034418 -0.00351663 -0.00352542 -0.0034418 -0.00345447 -0.00352542 -0.00353431 -0.0031518 -0.00318855 -0.0031534 -0.00318984 -0.00318855 -0.00321881 -0.00318984 -0.00322006 -0.0031534 -0.00318984 -0.0031723 -0.00320634 -0.00318984 -0.00322006 -0.00320634 -0.00323492 -0.00321881 -0.00324336 -0.00322006 -0.0032447 -0.00324336 -0.00326276 -0.0032447 -0.00326426 -0.00322006 -0.0032447 -0.00323492 -0.00325844 -0.0032447 -0.00326426 -0.00325844 -0.00327724 -0.0031723 -0.00320634 -0.00320676 -0.00323692 -0.00320634 -0.00323492 -0.00323692 -0.00326266 -0.00320676 -0.00323692 -0.00325446 -0.00327997 -0.00323692 -0.00326266 -0.00327997 -0.00330216 -0.00323492 -0.00325844 -0.00326266 -0.00328411 -0.00325844 -0.00327724 -0.00328411 -0.00330142 -0.00326266 -0.00328411 -0.00330216 -0.00332092 -0.00328411 -0.00330142 -0.00332092 -0.00333621 -0.00326276 -0.00327744 -0.00326426 -0.00327912 -0.00327744 -0.00328772 -0.00327912 -0.00328954 -0.00326426 -0.00327912 -0.00327724 -0.00329159 -0.00327912 -0.00328954 -0.00329159 -0.0033017 -0.00328772 -0.0032938 -0.00328954 -0.00329571 -0.0032938 -0.00329581 -0.00329571 -0.00329776 -0.00328954 -0.00329571 -0.0033017 -0.0033077 -0.00329571 -0.00329776 -0.0033077 -0.00330967 -0.00327724 -0.00329159 -0.00330142 -0.00331472 -0.00329159 -0.0033017 -0.00331472 -0.00332412 -0.00330142 -0.00331472 -0.00333621 -0.00334806 -0.00331472 -0.00332412 -0.00334806 -0.00335648 -0.0033017 -0.0033077 -0.00332412 -0.00332972 -0.0033077 -0.00330967 -0.00332972 -0.00333155 -0.00332412 -0.00332972 -0.00335648 -0.0033615 -0.00332972 -0.00333155 -0.0033615 -0.00336314 -0.00325446 -0.00327997 -0.00331301 -0.00333371 -0.00327997 -0.00330216 -0.00333371 -0.00335207 -0.00331301 -0.00333371 -0.00338026 -0.00339642 -0.00333371 -0.00335207 -0.00339642 -0.00341103 -0.00330216 -0.00332092 -0.00335207 -0.00336783 -0.00332092 -0.00333621 -0.00336783 -0.00338084 -0.00335207 -0.00336783 -0.00341103 -0.00342377 -0.00336783 -0.00338084 -0.00342377 -0.00343441 -0.00338026 -0.00339642 -0.00345447 -0.00346659 -0.00339642 -0.00341103 -0.00346659 -0.00347775 -0.00345447 -0.00346659 -0.00353431 -0.00354298 -0.00346659 -0.00347775 -0.00354298 -0.00355113 -0.00341103 -0.00342377 -0.00347775 -0.00348764 -0.00342377 -0.00343441 -0.00348764 -0.003496 -0.00347775 -0.00348764 -0.00355113 -0.00355847 -0.00348764 -0.003496 -0.00355847 -0.00356475 -0.00333621 -0.00334806 -0.00338084 -0.003391 -0.00334806 -0.00335648 -0.003391 -0.00339826 -0.00338084 -0.003391 -0.00343441 -0.0034428 -0.003391 -0.00339826 -0.0034428 -0.00344882 -0.00335648 -0.0033615 -0.00339826 -0.00340259 -0.0033615 -0.00336314 -0.00340259 -0.00340399 -0.00339826 -0.00340259 -0.00344882 -0.00345241 -0.00340259 -0.00340399 -0.00345241 -0.00345355 -0.00343441 -0.0034428 -0.003496 -0.00350265 -0.0034428 -0.00344882 -0.00350265 -0.00350745 -0.003496 -0.00350265 -0.00356475 -0.00356978 -0.00350265 -0.00350745 -0.00356978 -0.00357343 -0.00344882 -0.00345241 -0.00350745 -0.00351031 -0.00345241 -0.00345355 -0.00351031 -0.00351117 -0.00350745 -0.00351031 -0.00357343 -0.00357559 -0.00351031 -0.00351117 -0.00357559 -0.0035762 -0.00346802 -0.00347695 -0.00357579 -0.003582 -0.00347695 -0.00348496 -0.003582 -0.00358735 -0.00357579 -0.003582 -0.00368221 -0.00368625 -0.003582 -0.00358735 -0.00368625 -0.0036895 -0.00348496 -0.00349254 -0.00358735 -0.00359222 -0.00349254 -0.00350017 -0.00359222 -0.003597 -0.00358735 -0.00359222 -0.0036895 -0.00369226 -0.00359222 -0.003597 -0.00369226 -0.00369486 -0.00368221 -0.00368625 -0.00378757 -0.00378991 -0.00368625 -0.0036895 -0.00378991 -0.00379154 -0.00378757 -0.00378991 -0.00389203 -0.00389309 -0.00378991 -0.00379154 -0.00389309 -0.00389354 -0.0036895 -0.00369226 -0.00379154 -0.00379271 -0.00369226 -0.00369486 -0.00379271 -0.00379368 -0.00379154 -0.00379271 -0.00389354 -0.00389357 -0.00379271 -0.00379368 -0.00389357 -0.0038934 -0.00350017 -0.00350817 -0.003597 -0.00360197 -0.00350817 -0.00351663 -0.00360197 -0.00360729 -0.003597 -0.00360197 -0.00369486 -0.00369754 -0.00360197 -0.00360729 -0.00369754 -0.00370047 -0.00351663 -0.00352542 -0.00360729 -0.00361294 -0.00352542 -0.00353431 -0.00361294 -0.00361878 -0.00360729 -0.00361294 -0.00370047 -0.0037037 -0.00361294 -0.00361878 -0.0037037 -0.00370717 -0.00369486 -0.00369754 -0.00379368 -0.00379467 -0.00369754 -0.00370047 -0.00379467 -0.00379584 -0.00379368 -0.00379467 -0.0038934 -0.00389321 -0.00379467 -0.00379584 -0.00389321 -0.00389316 -0.00370047 -0.0037037 -0.00379584 -0.00379727 -0.0037037 -0.00370717 -0.00379727 -0.00379896 -0.00379584 -0.00379727 -0.00389316 -0.00389334 -0.00379727 -0.00379896 -0.00389334 -0.00389377 -0.00389203 -0.00389309 -0.00399563 -0.0039958 -0.00389309 -0.00389354 -0.0039958 -0.00399548 -0.00399563 -0.0039958 -0.00409829 -0.00409798 -0.0039958 -0.00399548 -0.00409798 -0.0040973 -0.00389354 -0.00389357 -0.00399548 -0.0039948 -0.00389357 -0.0038934 -0.0039948 -0.00399395 -0.003