# vtk DataFile Version 3.0
#This file was generated by the deal.II library on 2018/7/10 at 10:47:03
ASCII
DATASET UNSTRUCTURED_GRID

POINTS 4096 double
0 0.5 0
0.03125 0.5 0
0 0.53125 0
0.03125 0.53125 0
0.03125 0.5 0
0.0625 0.5 0
0.03125 0.53125 0
0.0625 0.53125 0
0 0.53125 0
0.03125 0.53125 0
0 0.5625 0
0.03125 0.5625 0
0.03125 0.53125 0
0.0625 0.53125 0
0.03125 0.5625 0
0.0625 0.5625 0
0.0625 0.5 0
0.09375 0.5 0
0.0625 0.53125 0
0.09375 0.53125 0
0.09375 0.5 0
0.125 0.5 0
0.09375 0.53125 0
0.125 0.53125 0
0.0625 0.53125 0
0.09375 0.53125 0
0.0625 0.5625 0
0.09375 0.5625 0
0.09375 0.53125 0
0.125 0.53125 0
0.09375 0.5625 0
0.125 0.5625 0
0 0.5625 0
0.03125 0.5625 0
0 0.59375 0
0.03125 0.59375 0
0.03125 0.5625 0
0.0625 0.5625 0
0.03125 0.59375 0
0.0625 0.59375 0
0 0.59375 0
0.03125 0.59375 0
0 0.625 0
0.03125 0.625 0
0.03125 0.59375 0
0.0625 0.59375 0
0.03125 0.625 0
0.0625 0.625 0
0.0625 0.5625 0
0.09375 0.5625 0
0.0625 0.59375 0
0.09375 0.59375 0
0.09375 0.5625 0
0.125 0.5625 0
0.09375 0.59375 0
0.125 0.59375 0
0.0625 0.59375 0
0.09375 0.59375 0
0.0625 0.625 0
0.09375 0.625 0
0.09375 0.59375 0
0.125 0.59375 0
0.09375 0.625 0
0.125 0.625 0
0.125 0.5 0
0.15625 0.5 0
0.125 0.53125 0
0.15625 0.53125 0
0.15625 0.5 0
0.1875 0.5 0
0.15625 0.53125 0
0.1875 0.53125 0
0.125 0.53125 0
0.15625 0.53125 0
0.125 0.5625 0
0.15625 0.5625 0
0.15625 0.53125 0
0.1875 0.53125 0
0.15625 0.5625 0
0.1875 0.5625 0
0.1875 0.5 0
0.21875 0.5 0
0.1875 0.53125 0
0.21875 0.53125 0
0.21875 0.5 0
0.25 0.5 0
0.21875 0.53125 0
0.25 0.53125 0
0.1875 0.53125 0
0.21875 0.53125 0
0.1875 0.5625 0
0.21875 0.5625 0
0.21875 0.53125 0
0.25 0.53125 0
0.21875 0.5625 0
0.25 0.5625 0
0.125 0.5625 0
0.15625 0.5625 0
0.125 0.59375 0
0.15625 0.59375 0
0.15625 0.5625 0
0.1875 0.5625 0
0.15625 0.59375 0
0.1875 0.59375 0
0.125 0.59375 0
0.15625 0.59375 0
0.125 0.625 0
0.15625 0.625 0
0.15625 0.59375 0
0.1875 0.59375 0
0.15625 0.625 0
0.1875 0.625 0
0.1875 0.5625 0
0.21875 0.5625 0
0.1875 0.59375 0
0.21875 0.59375 0
0.21875 0.5625 0
0.25 0.5625 0
0.21875 0.59375 0
0.25 0.59375 0
0.1875 0.59375 0
0.21875 0.59375 0
0.1875 0.625 0
0.21875 0.625 0
0.21875 0.59375 0
0.25 0.59375 0
0.21875 0.625 0
0.25 0.625 0
0 0.625 0
0.03125 0.625 0
0 0.65625 0
0.03125 0.65625 0
0.03125 0.625 0
0.0625 0.625 0
0.03125 0.65625 0
0.0625 0.65625 0
0 0.65625 0
0.03125 0.65625 0
0 0.6875 0
0.03125 0.6875 0
0.03125 0.65625 0
0.0625 0.65625 0
0.03125 0.6875 0
0.0625 0.6875 0
0.0625 0.625 0
0.09375 0.625 0
0.0625 0.65625 0
0.09375 0.65625 0
0.09375 0.625 0
0.125 0.625 0
0.09375 0.65625 0
0.125 0.65625 0
0.0625 0.65625 0
0.09375 0.65625 0
0.0625 0.6875 0
0.09375 0.6875 0
0.09375 0.65625 0
0.125 0.65625 0
0.09375 0.6875 0
0.125 0.6875 0
0 0.6875 0
0.03125 0.6875 0
0 0.71875 0
0.03125 0.71875 0
0.03125 0.6875 0
0.0625 0.6875 0
0.03125 0.71875 0
0.0625 0.71875 0
0 0.71875 0
0.03125 0.71875 0
0 0.75 0
0.03125 0.75 0
0.03125 0.71875 0
0.0625 0.71875 0
0.03125 0.75 0
0.0625 0.75 0
0.0625 0.6875 0
0.09375 0.6875 0
0.0625 0.71875 0
0.09375 0.71875 0
0.09375 0.6875 0
0.125 0.6875 0
0.09375 0.71875 0
0.125 0.71875 0
0.0625 0.71875 0
0.09375 0.71875 0
0.0625 0.75 0
0.09375 0.75 0
0.09375 0.71875 0
0.125 0.71875 0
0.09375 0.75 0
0.125 0.75 0
0.125 0.625 0
0.15625 0.625 0
0.125 0.65625 0
0.15625 0.65625 0
0.15625 0.625 0
0.1875 0.625 0
0.15625 0.65625 0
0.1875 0.65625 0
0.125 0.65625 0
0.15625 0.65625 0
0.125 0.6875 0
0.15625 0.6875 0
0.15625 0.65625 0
0.1875 0.65625 0
0.15625 0.6875 0
0.1875 0.6875 0
0.1875 0.625 0
0.21875 0.625 0
0.1875 0.65625 0
0.21875 0.65625 0
0.21875 0.625 0
0.25 0.625 0
0.21875 0.65625 0
0.25 0.65625 0
0.1875 0.65625 0
0.21875 0.65625 0
0.1875 0.6875 0
0.21875 0.6875 0
0.21875 0.65625 0
0.25 0.65625 0
0.21875 0.6875 0
0.25 0.6875 0
0.125 0.6875 0
0.15625 0.6875 0
0.125 0.71875 0
0.15625 0.71875 0
0.15625 0.6875 0
0.1875 0.6875 0
0.15625 0.71875 0
0.1875 0.71875 0
0.125 0.71875 0
0.15625 0.71875 0
0.125 0.75 0
0.15625 0.75 0
0.15625 0.71875 0
0.1875 0.71875 0
0.15625 0.75 0
0.1875 0.75 0
0.1875 0.6875 0
0.21875 0.6875 0
0.1875 0.71875 0
0.21875 0.71875 0
0.21875 0.6875 0
0.25 0.6875 0
0.21875 0.71875 0
0.25 0.71875 0
0.1875 0.71875 0
0.21875 0.71875 0
0.1875 0.75 0
0.21875 0.75 0
0.21875 0.71875 0
0.25 0.71875 0
0.21875 0.75 0
0.25 0.75 0
0.25 0.5 0
0.28125 0.5 0
0.25 0.53125 0
0.28125 0.53125 0
0.28125 0.5 0
0.3125 0.5 0
0.28125 0.53125 0
0.3125 0.53125 0
0.25 0.53125 0
0.28125 0.53125 0
0.25 0.5625 0
0.28125 0.5625 0
0.28125 0.53125 0
0.3125 0.53125 0
0.28125 0.5625 0
0.3125 0.5625 0
0.3125 0.5 0
0.34375 0.5 0
0.3125 0.53125 0
0.34375 0.53125 0
0.34375 0.5 0
0.375 0.5 0
0.34375 0.53125 0
0.375 0.53125 0
0.3125 0.53125 0
0.34375 0.53125 0
0.3125 0.5625 0
0.34375 0.5625 0
0.34375 0.53125 0
0.375 0.53125 0
0.34375 0.5625 0
0.375 0.5625 0
0.25 0.5625 0
0.28125 0.5625 0
0.25 0.59375 0
0.28125 0.59375 0
0.28125 0.5625 0
0.3125 0.5625 0
0.28125 0.59375 0
0.3125 0.59375 0
0.25 0.59375 0
0.28125 0.59375 0
0.25 0.625 0
0.28125 0.625 0
0.28125 0.59375 0
0.3125 0.59375 0
0.28125 0.625 0
0.3125 0.625 0
0.3125 0.5625 0
0.34375 0.5625 0
0.3125 0.59375 0
0.34375 0.59375 0
0.34375 0.5625 0
0.375 0.5625 0
0.34375 0.59375 0
0.375 0.59375 0
0.3125 0.59375 0
0.34375 0.59375 0
0.3125 0.625 0
0.34375 0.625 0
0.34375 0.59375 0
0.375 0.59375 0
0.34375 0.625 0
0.375 0.625 0
0.375 0.5 0
0.40625 0.5 0
0.375 0.53125 0
0.40625 0.53125 0
0.40625 0.5 0
0.4375 0.5 0
0.40625 0.53125 0
0.4375 0.53125 0
0.375 0.53125 0
0.40625 0.53125 0
0.375 0.5625 0
0.40625 0.5625 0
0.40625 0.53125 0
0.4375 0.53125 0
0.40625 0.5625 0
0.4375 0.5625 0
0.4375 0.5 0
0.46875 0.5 0
0.4375 0.53125 0
0.46875 0.53125 0
0.46875 0.5 0
0.5 0.5 0
0.46875 0.53125 0
0.5 0.53125 0
0.4375 0.53125 0
0.46875 0.53125 0
0.4375 0.5625 0
0.46875 0.5625 0
0.46875 0.53125 0
0.5 0.53125 0
0.46875 0.5625 0
0.5 0.5625 0
0.375 0.5625 0
0.40625 0.5625 0
0.375 0.59375 0
0.40625 0.59375 0
0.40625 0.5625 0
0.4375 0.5625 0
0.40625 0.59375 0
0.4375 0.59375 0
0.375 0.59375 0
0.40625 0.59375 0
0.375 0.625 0
0.40625 0.625 0
0.40625 0.59375 0
0.4375 0.59375 0
0.40625 0.625 0
0.4375 0.625 0
0.4375 0.5625 0
0.46875 0.5625 0
0.4375 0.59375 0
0.46875 0.59375 0
0.46875 0.5625 0
0.5 0.5625 0
0.46875 0.59375 0
0.5 0.59375 0
0.4375 0.59375 0
0.46875 0.59375 0
0.4375 0.625 0
0.46875 0.625 0
0.46875 0.59375 0
0.5 0.59375 0
0.46875 0.625 0
0.5 0.625 0
0.25 0.625 0
0.28125 0.625 0
0.25 0.65625 0
0.28125 0.65625 0
0.28125 0.625 0
0.3125 0.625 0
0.28125 0.65625 0
0.3125 0.65625 0
0.25 0.65625 0
0.28125 0.65625 0
0.25 0.6875 0
0.28125 0.6875 0
0.28125 0.65625 0
0.3125 0.65625 0
0.28125 0.6875 0
0.3125 0.6875 0
0.3125 0.625 0
0.34375 0.625 0
0.3125 0.65625 0
0.34375 0.65625 0
0.34375 0.625 0
0.375 0.625 0
0.34375 0.65625 0
0.375 0.65625 0
0.3125 0.65625 0
0.34375 0.65625 0
0.3125 0.6875 0
0.34375 0.6875 0
0.34375 0.65625 0
0.375 0.65625 0
0.34375 0.6875 0
0.375 0.6875 0
0.25 0.6875 0
0.28125 0.6875 0
0.25 0.71875 0
0.28125 0.71875 0
0.28125 0.6875 0
0.3125 0.6875 0
0.28125 0.71875 0
0.3125 0.71875 0
0.25 0.71875 0
0.28125 0.71875 0
0.25 0.75 0
0.28125 0.75 0
0.28125 0.71875 0
0.3125 0.71875 0
0.28125 0.75 0
0.3125 0.75 0
0.3125 0.6875 0
0.34375 0.6875 0
0.3125 0.71875 0
0.34375 0.71875 0
0.34375 0.6875 0
0.375 0.6875 0
0.34375 0.71875 0
0.375 0.71875 0
0.3125 0.71875 0
0.34375 0.71875 0
0.3125 0.75 0
0.34375 0.75 0
0.34375 0.71875 0
0.375 0.71875 0
0.34375 0.75 0
0.375 0.75 0
0.375 0.625 0
0.40625 0.625 0
0.375 0.65625 0
0.40625 0.65625 0
0.40625 0.625 0
0.4375 0.625 0
0.40625 0.65625 0
0.4375 0.65625 0
0.375 0.65625 0
0.40625 0.65625 0
0.375 0.6875 0
0.40625 0.6875 0
0.40625 0.65625 0
0.4375 0.65625 0
0.40625 0.6875 0
0.4375 0.6875 0
0.4375 0.625 0
0.46875 0.625 0
0.4375 0.65625 0
0.46875 0.65625 0
0.46875 0.625 0
0.5 0.625 0
0.46875 0.65625 0
0.5 0.65625 0
0.4375 0.65625 0
0.46875 0.65625 0
0.4375 0.6875 0
0.46875 0.6875 0
0.46875 0.65625 0
0.5 0.65625 0
0.46875 0.6875 0
0.5 0.6875 0
0.375 0.6875 0
0.40625 0.6875 0
0.375 0.71875 0
0.40625 0.71875 0
0.40625 0.6875 0
0.4375 0.6875 0
0.40625 0.71875 0
0.4375 0.71875 0
0.375 0.71875 0
0.40625 0.71875 0
0.375 0.75 0
0.40625 0.75 0
0.40625 0.71875 0
0.4375 0.71875 0
0.40625 0.75 0
0.4375 0.75 0
0.4375 0.6875 0
0.46875 0.6875 0
0.4375 0.71875 0
0.46875 0.71875 0
0.46875 0.6875 0
0.5 0.6875 0
0.46875 0.71875 0
0.5 0.71875 0
0.4375 0.71875 0
0.46875 0.71875 0
0.4375 0.75 0
0.46875 0.75 0
0.46875 0.71875 0
0.5 0.71875 0
0.46875 0.75 0
0.5 0.75 0
0 0.75 0
0.03125 0.75 0
0 0.78125 0
0.03125 0.78125 0
0.03125 0.75 0
0.0625 0.75 0
0.03125 0.78125 0
0.0625 0.78125 0
0 0.78125 0
0.03125 0.78125 0
0 0.8125 0
0.03125 0.8125 0
0.03125 0.78125 0
0.0625 0.78125 0
0.03125 0.8125 0
0.0625 0.8125 0
0.0625 0.75 0
0.09375 0.75 0
0.0625 0.78125 0
0.09375 0.78125 0
0.09375 0.75 0
0.125 0.75 0
0.09375 0.78125 0
0.125 0.78125 0
0.0625 0.78125 0
0.09375 0.78125 0
0.0625 0.8125 0
0.09375 0.8125 0
0.09375 0.78125 0
0.125 0.78125 0
0.09375 0.8125 0
0.125 0.8125 0
0 0.8125 0
0.03125 0.8125 0
0 0.84375 0
0.03125 0.84375 0
0.03125 0.8125 0
0.0625 0.8125 0
0.03125 0.84375 0
0.0625 0.84375 0
0 0.84375 0
0.03125 0.84375 0
0 0.875 0
0.03125 0.875 0
0.03125 0.84375 0
0.0625 0.84375 0
0.03125 0.875 0
0.0625 0.875 0
0.0625 0.8125 0
0.09375 0.8125 0
0.0625 0.84375 0
0.09375 0.84375 0
0.09375 0.8125 0
0.125 0.8125 0
0.09375 0.84375 0
0.125 0.84375 0
0.0625 0.84375 0
0.09375 0.84375 0
0.0625 0.875 0
0.09375 0.875 0
0.09375 0.84375 0
0.125 0.84375 0
0.09375 0.875 0
0.125 0.875 0
0.125 0.75 0
0.15625 0.75 0
0.125 0.78125 0
0.15625 0.78125 0
0.15625 0.75 0
0.1875 0.75 0
0.15625 0.78125 0
0.1875 0.78125 0
0.125 0.78125 0
0.15625 0.78125 0
0.125 0.8125 0
0.15625 0.8125 0
0.15625 0.78125 0
0.1875 0.78125 0
0.15625 0.8125 0
0.1875 0.8125 0
0.1875 0.75 0
0.21875 0.75 0
0.1875 0.78125 0
0.21875 0.78125 0
0.21875 0.75 0
0.25 0.75 0
0.21875 0.78125 0
0.25 0.78125 0
0.1875 0.78125 0
0.21875 0.78125 0
0.1875 0.8125 0
0.21875 0.8125 0
0.21875 0.78125 0
0.25 0.78125 0
0.21875 0.8125 0
0.25 0.8125 0
0.125 0.8125 0
0.15625 0.8125 0
0.125 0.84375 0
0.15625 0.84375 0
0.15625 0.8125 0
[...]
POINT_DATA 4096
SCALARS State_InstatPDEProblemContainer_0 double 1
LOOKUP_TABLE default
-0.00197152 -0.00197048 -0.00210891 -0.00210804 -0.00197048 -0.00196952 -0.00210804 -0.00210757 -0.00210891 -0.00210804 -0.00224546 -0.00224477 -0.00210804 -0.00210757 -0.00224477 -0.00224475 -0.00196952 -0.00196863 -0.00210757 -0.00210749 -0.00196863 -0.0019678 -0.00210749 -0.00210784 -0.00210757 -0.00210749 -0.00224475 -0.00224544 -0.00210749 -0.00210784 -0.00224544 -0.00224688 -0.00224546 -0.00224477 -0.0023806 -0.00238007 -0.00224477 -0.00224475 -0.00238007 -0.00238046 -0.0023806 -0.00238007 -0.00251381 -0.00251343 -0.00238007 -0.00238046 -0.00251343 -0.00251415 -0.00224475 -0.00224544 -0.00238046 -0.0023818 -0.00224544 -0.00224688 -0.0023818 -0.00238417 -0.00238046 -0.0023818 -0.00251415 -0.00251601 -0.0023818 -0.00238417 -0.00251601 -0.00251908 -0.0019678 -0.00196701 -0.00210784 -0.00210865 -0.00196701 -0.00196627 -0.00210865 -0.00210999 -0.00210784 -0.00210865 -0.00224688 -0.00224915 -0.00210865 -0.00210999 -0.00224915 -0.00225238 -0.00196627 -0.00196557 -0.00210999 -0.00211197 -0.00196557 -0.0019649 -0.00211197 -0.00211473 -0.00210999 -0.00211197 -0.00225238 -0.00225675 -0.00211197 -0.00211473 -0.00225675 -0.00226252 -0.00224688 -0.00224915 -0.00238417 -0.00238765 -0.00224915 -0.00225238 -0.00238765 -0.00239242 -0.00238417 -0.00238765 -0.00251908 -0.00252347 -0.00238765 -0.00239242 -0.00252347 -0.00252935 -0.00225238 -0.00225675 -0.00239242 -0.00239869 -0.00225675 -0.00226252 -0.00239869 -0.00240676 -0.00239242 -0.00239869 -0.00252935 -0.00253691 -0.00239869 -0.00240676 -0.00253691 -0.00254643 -0.00251381 -0.00251343 -0.00264469 -0.00264443 -0.00251343 -0.00251415 -0.00264443 -0.00264539 -0.00264469 -0.00264443 -0.00277292 -0.00277275 -0.00264443 -0.00264539 -0.00277275 -0.00277386 -0.00251415 -0.00251601 -0.00264539 -0.00264761 -0.00251601 -0.00251908 -0.00264761 -0.00265115 -0.00264539 -0.00264761 -0.00277386 -0.00277628 -0.00264761 -0.00265115 -0.00277628 -0.00278006 -0.00277292 -0.00277275 -0.00289828 -0.00289818 -0.00277275 -0.00277386 -0.00289818 -0.00289935 -0.00289828 -0.00289818 -0.00302066 -0.00302059 -0.00289818 -0.00289935 -0.00302059 -0.00302176 -0.00277386 -0.00277628 -0.00289935 -0.00290183 -0.00277628 -0.00278006 -0.00290183 -0.00290565 -0.00289935 -0.00290183 -0.00302176 -0.00302418 -0.00290183 -0.00290565 -0.00302418 -0.00302786 -0.00251908 -0.00252347 -0.00265115 -0.00265612 -0.00252347 -0.00252935 -0.00265612 -0.00266264 -0.00265115 -0.00265612 -0.00278006 -0.00278528 -0.00265612 -0.00266264 -0.00278528 -0.00279203 -0.00252935 -0.00253691 -0.00266264 -0.00267088 -0.00253691 -0.00254643 -0.00267088 -0.00268106 -0.00266264 -0.00267088 -0.00279203 -0.00280042 -0.00267088 -0.00268106 -0.00280042 -0.00281057 -0.00278006 -0.00278528 -0.00290565 -0.00291084 -0.00278528 -0.00279203 -0.00291084 -0.00291747 -0.00290565 -0.00291084 -0.00302786 -0.00303281 -0.00291084 -0.00291747 -0.00303281 -0.00303906 -0.00279203 -0.00280042 -0.00291747 -0.00292559 -0.00280042 -0.00281057 -0.00292559 -0.00293521 -0.00291747 -0.00292559 -0.00303906 -0.00304659 -0.00292559 -0.00293521 -0.00304659 -0.00305536 -0.0019649 -0.00196426 -0.00211473 -0.0021185 -0.00196426 -0.00196363 -0.0021185 -0.00212364 -0.00211473 -0.0021185 -0.00226252 -0.00227008 -0.0021185 -0.00212364 -0.00227008 -0.00227999 -0.00196363 -0.00196302 -0.00212364 -0.00213073 -0.00196302 -0.00196239 -0.00213073 -0.00214075 -0.00212364 -0.00213073 -0.00227999 -0.00229312 -0.00213073 -0.00214075 -0.00229312 -0.00231083 -0.00226252 -0.00227008 -0.00240676 -0.00241705 -0.00227008 -0.00227999 -0.00241705 -0.00243015 -0.00240676 -0.00241705 -0.00254643 -0.00255828 -0.00241705 -0.00243015 -0.00255828 -0.0025729 -0.00227999 -0.00229312 -0.00243015 -0.00244684 -0.00229312 -0.00231083 -0.00244684 -0.00246817 -0.00243015 -0.00244684 -0.0025729 -0.00259078 -0.00244684 -0.00246817 -0.00259078 -0.00261239 -0.00196239 -0.0019617 -0.00214075 -0.00215556 -0.0019617 -0.00196083 -0.00215556 -0.00217911 -0.00214075 -0.00215556 -0.00231083 -0.00233527 -0.00215556 -0.00217911 -0.00233527 -0.00236963 -0.00196083 -0.0019594 -0.00217911 -0.00222027 -0.0019594 -0.00195775 -0.00222027 -0.00230879 -0.00217911 -0.00222027 -0.00236963 -0.00241867 -0.00222027 -0.00230879 -0.00241867 -0.00247011 -0.00231083 -0.00233527 -0.00246817 -0.00249531 -0.00233527 -0.00236963 -0.00249531 -0.00252921 -0.00246817 -0.00249531 -0.00261239 -0.00263795 -0.00249531 -0.00252921 -0.00263795 -0.00266664 -0.00236963 -0.00241867 -0.00252921 -0.00256729 -0.00241867 -0.00247011 -0.00256729 -0.00260634 -0.00252921 -0.00256729 -0.00266664 -0.0026967 -0.00256729 -0.00260634 -0.0026967 -0.00272561 -0.00254643 -0.00255828 -0.00268106 -0.0026934 -0.00255828 -0.0025729 -0.0026934 -0.00270815 -0.00268106 -0.0026934 -0.00281057 -0.00282258 -0.0026934 -0.00270815 -0.00282258 -0.00283652 -0.0025729 -0.00259078 -0.00270815 -0.00272549 -0.00259078 -0.00261239 -0.00272549 -0.00274545 -0.00270815 -0.00272549 -0.00283652 -0.00285233 -0.00272549 -0.00274545 -0.00285233 -0.00286977 -0.00281057 -0.00282258 -0.00293521 -0.00294634 -0.00282258 -0.00283652 -0.00294634 -0.00295891 -0.00293521 -0.00294634 -0.00305536 -0.0030653 -0.00294634 -0.00295891 -0.0030653 -0.00307625 -0.00283652 -0.00285233 -0.00295891 -0.00297273 -0.00285233 -0.00286977 -0.00297273 -0.00298746 -0.00295891 -0.00297273 -0.00307625 -0.00308797 -0.00297273 -0.00298746 -0.00308797 -0.00310009 -0.00261239 -0.00263795 -0.00274545 -0.00276763 -0.00263795 -0.00266664 -0.00276763 -0.00279111 -0.00274545 -0.00276763 -0.00286977 -0.00288831 -0.00276763 -0.00279111 -0.00288831 -0.00290711 -0.00266664 -0.0026967 -0.00279111 -0.00281447 -0.0026967 -0.00272561 -0.00281447 -0.00283647 -0.00279111 -0.00281447 -0.00290711 -0.00292524 -0.00281447 -0.00283647 -0.00292524 -0.00294196 -0.00286977 -0.00288831 -0.00298746 -0.00300257 -0.00288831 -0.00290711 -0.00300257 -0.00301742 -0.00298746 -0.00300257 -0.00310009 -0.00311217 -0.00300257 -0.00301742 -0.00311217 -0.0031237 -0.00290711 -0.00292524 -0.00301742 -0.00303136 -0.00292524 -0.00294196 -0.00303136 -0.00304399 -0.00301742 -0.00303136 -0.0031237 -0.00313427 -0.00303136 -0.00304399 -0.00313427 -0.00314365 -0.00302066 -0.00302059 -0.00314002 -0.00313997 -0.00302059 -0.00302176 -0.00313997 -0.00314107 -0.00314002 -0.00313997 -0.0032564 -0.00325634 -0.00313997 -0.00314107 -0.00325634 -0.00325733 -0.00302176 -0.00302418 -0.00314107 -0.00314333 -0.00302418 -0.00302786 -0.00314333 -0.00314674 -0.00314107 -0.00314333 -0.00325733 -0.00325935 -0.00314333 -0.00314674 -0.00325935 -0.00326241 -0.0032564 -0.00325634 -0.0033699 -0.00336982 -0.00325634 -0.00325733 -0.00336982 -0.00337065 -0.0033699 -0.00336982 -0.00348066 -0.00348054 -0.00336982 -0.00337065 -0.00348054 -0.0034812 -0.00325733 -0.00325935 -0.00337065 -0.0033724 -0.00325935 -0.00326241 -0.0033724 -0.00337503 -0.00337065 -0.0033724 -0.0034812 -0.00348263 -0.0033724 -0.00337503 -0.00348263 -0.00348479 -0.00302786 -0.00303281 -0.00314674 -0.0031513 -0.00303281 -0.00303906 -0.0031513 -0.00315697 -0.00314674 -0.0031513 -0.00326241 -0.00326646 -0.0031513 -0.00315697 -0.00326646 -0.00327145 -0.00303906 -0.00304659 -0.00315697 -0.00316373 -0.00304659 -0.00305536 -0.00316373 -0.00317147 -0.00315697 -0.00316373 -0.00327145 -0.00327733 -0.00316373 -0.00317147 -0.00327733 -0.00328396 -0.00326241 -0.00326646 -0.00337503 -0.0033785 -0.00326646 -0.00327145 -0.0033785 -0.00338275 -0.00337503 -0.0033785 -0.00348479 -0.00348765 -0.0033785 -0.00338275 -0.00348765 -0.00349113 -0.00327145 -0.00327733 -0.00338275 -0.0033877 -0.00327733 -0.00328396 -0.0033877 -0.00339321 -0.00338275 -0.0033877 -0.00349113 -0.00349513 -0.0033877 -0.00339321 -0.00349513 -0.00349954 -0.00348066 -0.00348054 -0.00358886 -0.0035887 -0.00348054 -0.0034812 -0.0035887 -0.00358916 -0.00358886 -0.0035887 -0.00369471 -0.0036945 -0.0035887 -0.00358916 -0.0036945 -0.00369476 -0.0034812 -0.00348263 -0.00358916 -0.00359024 -0.00348263 -0.00348479 -0.00359024 -0.00359192 -0.00358916 -0.00359024 -0.00369476 -0.00369548 -0.00359024 -0.00359192 -0.00369548 -0.00369664 -0.00369471 -0.0036945 -0.00379846 -0.00379816 -0.0036945 -0.00369476 -0.00379816 -0.00379825 -0.00379846 -0.00379816 -0.0039 -0.0039 -0.00379816 -0.00379825 -0.0039 -0.0039 -0.00369476 -0.00369548 -0.00379825 -0.00379862 -0.00369548 -0.00369664 -0.00379862 -0.00379923 -0.00379825 -0.00379862 -0.0039 -0.0039 -0.00379862 -0.00379923 -0.0039 -0.0039 -0.00348479 -0.00348765 -0.00359192 -0.00359413 -0.00348765 -0.00349113 -0.00359413 -0.00359681 -0.00359192 -0.00359413 -0.00369664 -0.00369817 -0.00359413 -0.00359681 -0.00369817 -0.00370004 -0.00349113 -0.00349513 -0.00359681 -0.00359988 -0.00349513 -0.00349954 -0.00359988 -0.00360322 -0.00359681 -0.00359988 -0.00370004 -0.00370215 -0.00359988 -0.00360322 -0.00370215 -0.00370443 -0.00369664 -0.00369817 -0.00379923 -0.00380004 -0.00369817 -0.00370004 -0.00380004 -0.00380102 -0.00379923 -0.00380004 -0.0039 -0.0039 -0.00380004 -0.00380102 -0.0039 -0.0039 -0.00370004 -0.00370215 -0.00380102 -0.00380213 -0.00370215 -0.00370443 -0.00380213 -0.00380333 -0.00380102 -0.00380213 -0.0039 -0.0039 -0.00380213 -0.00380333 -0.0039 -0.0039 -0.00305536 -0.0030653 -0.00317147 -0.00318007 -0.0030653 -0.00307625 -0.00318007 -0.00318934 -0.00317147 -0.00318007 -0.00328396 -0.0032912 -0.00318007 -0.00318934 -0.0032912 -0.00329885 -0.00307625 -0.00308797 -0.00318934 -0.00319902 -0.00308797 -0.00310009 -0.00319902 -0.00320878 -0.00318934 -0.00319902 -0.00329885 -0.00330665 -0.00319902 -0.00320878 -0.00330665 -0.00331432 -0.00328396 -0.0032912 -0.00339321 -0.00339913 -0.0032912 -0.00329885 -0.00339913 -0.00340526 -0.00339321 -0.00339913 -0.00349954 -0.00350421 -0.00339913 -0.00340526 -0.00350421 -0.00350896 -0.00329885 -0.00330665 -0.00340526 -0.00341139 -0.00330665 -0.00331432 -0.00341139 -0.00341726 -0.00340526 -0.00341139 -0.00350896 -0.0035136 -0.00341139 -0.00341726 -0.0035136 -0.00351794 -0.00310009 -0.00311217 -0.00320878 -0.00321824 -0.00311217 -0.0031237 -0.00321824 -0.00322703 -0.00320878 -0.00321824 -0.00331432 -0.00332156 -0.00321824 -0.00322703 -0.00332156 -0.0033281 -0.0031237 -0.00313427 -0.00322703 -0.00323488 -0.00313427 -0.00314365 -0.00323488 -0.00324163 -0.00322703 -0.00323488 -0.0033281 -0.00333373 -0.00323488 -0.00324163 -0.00333373 -0.00333838 -0.00331432 -0.00332156 -0.00341726 -0.00342264 -0.00332156 -0.0033281 -0.00342264 -0.00342733 -0.00341726 -0.00342264 -0.00351794 -0.00352178 -0.00342264 -0.00342733 -0.00352178 -0.00352497 -0.0033281 -0.00333373 -0.00342733 -0.00343118 -0.00333373 -0.00333838 -0.00343118 -0.00343417 -0.00342733 -0.00343118 -0.00352497 -0.00352743 -0.00343118 -0.00343417 -0.00352743 -0.00352914 -0.00349954 -0.00350421 -0.00360322 -0.00360671 -0.00350421 -0.00350896 -0.00360671 -0.0036102 -0.00360322 -0.00360671 -0.00370443 -0.00370678 -0.00360671 -0.0036102 -0.00370678 -0.0037091 -0.00350896 -0.0035136 -0.0036102 -0.00361353 -0.0035136 -0.00351794 -0.00361353 -0.00361656 -0.0036102 -0.00361353 -0.0037091 -0.00371127 -0.00361353 -0.00361656 -0.00371127 -0.00371317 -0.00370443 -0.00370678 -0.00380333 -0.00380454 -0.00370678 -0.0037091 -0.00380454 -0.00380572 -0.00380333 -0.00380454 -0.0039 -0.0039 -0.00380454 -0.00380572 -0.0039 -0.0039 -0.0037091 -0.00371127 -0.00380572 -0.0038068 -0.00371127 -0.00371317 -0.0038068 -0.00380772 -0.00380572 -0.0038068 -0.0039 -0.0039 -0.0038068 -0.00380772 -0.0039 -0.0039 -0.00351794 -0.00352178 -0.00361656 -0.00361913 -0.00352178 -0.00352497 -0.00361913 -0.00362115 -0.00361656 -0.00361913 -0.00371317 -0.00371472 -0.00361913 -0.00362115 -0.00371472 -0.00371583 -0.00352497 -0.00352743 -0.00362115 -0.00362254 -0.00352743 -0.00352914 -0.00362254 -0.00362332 -0.00362115 -0.00362254 -0.00371583 -0.00371647 -0.00362254 -0.00362332 -0.00371647 -0.00371664 -0.00371317 -0.00371472 -0.00380772 -0.00380843 -0.00371472 -0.00371583 -0.00380843 -0.00380888 -0.00380772 -0.00380843 -0.0039 -0.0039 -0.00380843 -0.00380888 -0.0039 -0.0039 -0.00371583 -0.00371647 -0.00380888 -0.00380906 -0.00371647 -0.00371664 -0.00380906 -0.00380896 -0.00380888 -0.00380906 -0.0039 -0.0039 -0.00380906 -0.00380896 -0.0039 -0.0039 -0.00195775 -0.00225347 -0.00230879 -0.00237975 -0.00225347 -0.00242891 -0.00237975 -0.00247785 -0.00230879 -0.00237975 -0.00247011 -0.00252378 -0.00237975 -0.00247785 -0.00252378 -0.00257558 -0.00242891 -0.00254789 -0.00247785 -0.00257025 -0.00254789 -0.00263781 -0.00257025 -0.00264919 -0.00247785 -0.00257025 -0.00257558 -0.00263493 -0.00257025 -0.00264919 -0.00263493 -0.00269396 -0.00247011 -0.00252378 -0.00260634 -0.00264249 -0.00252378 -0.00257558 -0.00264249 -0.00267901 -0.00260634 -0.00264249 -0.00272561 -0.00275262 -0.00264249 -0.00267901 -0.00275262 -0.00277875 -0.00257558 -0.00263493 -0.00267901 -0.00271782 -0.00263493 -0.00269396 -0.00271782 -0.00275934 -0.00267901 -0.00271782 -0.00277875 -0.00280614 -0.00271782 -0.00275934 -0.00280614 -0.00283535 -0.00263781 -0.00270937 -0.00264919 -0.00271556 -0.00270937 -0.00276788 -0.00271556 -0.0027714 -0.00264919 -0.00271556 -0.00269396 -0.00274833 -0.00271556 -0.0027714 -0.00274833 -0.00279666 -0.00276788 -0.00281632 -0.0027714 -0.00281845 -0.00281632 -0.00285661 -0.00281845 -0.00285805 -0.0027714 -0.00281845 -0.00279666 -0.00283885 -0.00281845 -0.00285805 -0.00283885 -0.00287523 -0.00269396 -0.00274833 -0.00275934 -0.00280064 -0.00274833 -0.00279666 -0.00280064 -0.00283958 -0.00275934 -0.00280064 -0.00283535 -0.00286565 -0.00280064 -0.00283958 -0.00286565 -0.00289557 -0.00279666 -0.00283885 -0.00283958 -0.00287504 -0.00283885 -0.00287523 -0.00287504 -0.00290656 -0.00283958 -0.00287504 -0.00289557 -0.00292393 -0.00287504 -0.00290656 -0.00292393 -0.00294994 -0.00272561 -0.00275262 -0.00283647 -0.00285671 -0.00275262 -0.00277875 -0.00285671 -0.00287605 -0.00283647 -0.00285671 -0.00294196 -0.0029572 -0.00285671 -0.00287605 -0.0029572 -0.00297148 -0.00277875 -0.00280614 -0.00287605 -0.00289572 -0.00280614 -0.00283535 -0.00289572 -0.00291656 -0.00287605 -0.00289572 -0.00297148 -0.0029857 -0.00289572 -0.00291656 -0.0029857 -0.00300052 -0.00294196 -0.0029572 -0.00304399 -0.00305531 -0.0029572 -0.00297148 -0.00305531 -0.00306572 -0.00304399 -0.00305531 -0.00314365 -0.00315186 -0.00305531 -0.00306572 -0.00315186 -0.00315922 -0.00297148 -0.0029857 -0.00306572 -0.00307584 -0.0029857 -0.00300052 -0.00307584 -0.00308621 -0.00306572 -0.00307584 -0.00315922 -0.00316617 -0.00307584 -0.00308621 -0.00316617 -0.00317317 -0.00283535 -0.00286565 -0.00291656 -0.00293846 -0.00286565 -0.00289557 -0.00293846 -0.00296075 -0.00291656 -0.00293846 -0.00300052 -0.00301616 -0.00293846 -0.00296075 -0.00301616 -0.00303235 -0.00289557 -0.00292393 -0.00296075 -0.00298257 -0.00292393 -0.00294994 -0.00298257 -0.00300318 -0.00296075 -0.00298257 -0.00303235 -0.0030486 -0.00298257 -0.00300318 -0.0030486 -0.00306433 -0.00300052 -0.00301616 -0.00308621 -0.00309713 -0.00301616 -0.00303235 -0.00309713 -0.00310855 -0.00308621 -0.00309713 -0.00317317 -0.00318049 -0.00309713 -0.00310855 -0.00318049 -0.00318821 -0.00303235 -0.0030486 -0.00310855 -0.00312023 -0.0030486 -0.00306433 -0.00312023 -0.00313179 -0.00310855 -0.00312023 -0.00318821 -0.00319625 -0.00312023 -0.00313179 -0.00319625 -0.00320436 -0.00285661 -0.00289006 -0.00285805 -0.00289123 -0.00289006 -0.00291762 -0.00289123 -0.00291874 -0.00285805 -0.00289123 -0.00287523 -0.00290621 -0.00289123 -0.00291874 -0.00290621 -0.00293223 -0.00291762 -0.00293997 -0.00291874 -0.00294117 -0.00293997 -0.00295764 -0.00294117 -0.00295898 -0.00291874 -0.00294117 -0.00293223 -0.00295365 -0.00294117 -0.00295898 -0.00295365 -0.00297077 -0.00287523 -0.00290621 -0.00290656 -0.00293402 -0.00290621 -0.00293223 -0.00293402 -0.00295745 -0.00290656 -0.00293402 -0.00294994 -0.00297317 -0.00293402 -0.00295745 -0.00297317 -0.00299337 -0.00293223 -0.00295365 -0.00295745 -0.00297699 -0.00295365 -0.00297077 -0.00297699 -0.00299275 -0.00295745 -0.00297699 -0.00299337 -0.00301045 -0.00297699 -0.00299275 -0.00301045 -0.00302438 -0.00295764 -0.00297101 -0.00295898 -0.00297251 -0.00297101 -0.00298037 -0.00297251 -0.002982 -0.00295898 -0.00297251 -0.00297077 -0.00298384 -0.00297251 -0.002982 -0.00298384 -0.00299304 -0.00298037 -0.00298591 -0.002982 -0.00298762 -0.00298591 -0.00298775 -0.00298762 -0.00298948 -0.002982 -0.00298762 -0.00299304 -0.0029985 -0.00298762 -0.00298948 -0.0029985 -0.00300031 -0.00297077 -0.00298384 -0.00299275 -0.00300486 -0.00298384 -0.00299304 -0.00300486 -0.00301342 -0.00299275 -0.00300486 -0.00302438 -0.00303518 -0.00300486 -0.00301342 -0.00303518 -0.00304285 -0.00299304 -0.0029985 -0.00301342 -0.00301852 -0.0029985 -0.00300031 -0.00301852 -0.0030202 -0.00301342 -0.00301852 -0.00304285 -0.00304743 -0.00301852 -0.0030202 -0.00304743 -0.00304892 -0.00294994 -0.00297317 -0.00300318 -0.00302203 -0.00297317 -0.00299337 -0.00302203 -0.00303875 -0.00300318 -0.00302203 -0.00306433 -0.00307904 -0.00302203 -0.00303875 -0.00307904 -0.00309236 -0.00299337 -0.00301045 -0.00303875 -0.00305311 -0.00301045 -0.00302438 -0.00305311 -0.00306496 -0.00303875 -0.00305311 -0.00309236 -0.00310397 -0.00305311 -0.00306496 -0.00310397 -0.00311367 -0.00306433 -0.00307904 -0.00313179 -0.00314284 -0.00307904 -0.00309236 -0.00314284 -0.00315301 -0.00313179 -0.00314284 -0.00320436 -0.00321228 -0.00314284 -0.00315301 -0.00321228 -0.00321971 -0.00309236 -0.00310397 -0.00315301 -0.00316203 -0.00310397 -0.00311367 -0.00316203 -0.00316966 -0.00315301 -0.00316203 -0.00321971 -0.00322641 -0.00316203 -0.00316966 -0.00322641 -0.00323215 -0.00302438 -0.00303518 -0.00306496 -0.00307422 -0.00303518 -0.00304285 -0.00307422 -0.00308084 -0.00306496 -0.00307422 -0.00311367 -0.00312131 -0.00307422 -0.00308084 -0.00312131 -0.00312681 -0.00304285 -0.00304743 -0.00308084 -0.0030848 -0.00304743 -0.00304892 -0.0030848 -0.00308608 -0.00308084 -0.0030848 -0.00312681 -0.0031301 -0.0030848 -0.00308608 -0.0031301 -0.00313115 -0.00311367 -0.00312131 -0.00316966 -0.00317573 -0.00312131 -0.00312681 -0.00317573 -0.00318012 -0.00316966 -0.00317573 -0.00323215 -0.00323675 -0.00317573 -0.00318012 -0.00323675 -0.0032401 -0.00312681 -0.0031301 -0.00318012 -0.00318274 -0.0031301 -0.00313115 -0.00318274 -0.00318355 -0.00318012 -0.00318274 -0.0032401 -0.00324209 -0.00318274 -0.00318355 -0.00324209 -0.00324267 -0.00314365 -0.00315186 -0.00324163 -0.00324736 -0.00315186 -0.00315922 -0.00324736 -0.00325229 -0.00324163 -0.00324736 -0.00333838 -0.00334212 -0.00324736 -0.00325229 -0.00334212 -0.00334514 -0.00315922 -0.00316617 -0.00325229 -0.00325678 -0.00316617 -0.00317317 -0.00325678 -0.00326118 -0.00325229 -0.00325678 -0.00334514 -0.00334771 -0.00325678 -0.00326118 -0.00334771 -0.00335012 -0.00333838 -0.00334212 -0.00343417 -0.00343636 -0.00334212 -0.00334514 -0.00343636 -0.0034379 -0.00343417 -0.00343636 -0.00352914 -0.00353015 -0.00343636 -0.0034379 -0.00353015 -0.0035306 -0.00334514 -0.00334771 -0.0034379 -0.00343901 -0.00334771 -0.00335012 -0.00343901 -0.00343993 -0.0034379 -0.00343901 -0.0035306 -0.00353067 -0.00343901 -0.00343993 -0.00353067 -0.00353055 -0.00317317 -0.00318049 -0.00326118 -0.00326574 -0.00318049 -0.00318821 -0.00326574 -0.00327062 -0.00326118 -0.00326574 -0.00335012 -0.0033526 -0.00326574 -0.00327062 -0.0033526 -0.0033553 -0.00318821 -0.00319625 -0.00327062 -0.00327578 -0.00319625 -0.00320436 -0.00327578 -0.00328113 -0.00327062 -0.00327578 -0.0033553 -0.00335827 -0.00327578 -0.00328113 -0.00335827 -0.00336145 -0.00335012 -0.0033526 -0.00343993 -0.00344087 -0.0033526 -0.0033553 -0.00344087 -0.00344196 -0.00343993 -0.00344087 -0.00353055 -0.00353041 -0.00344087 -0.00344196 -0.00353041 -0.00353039 -0.0033553 -0.00335827 -0.00344196 -0.00344329 -0.00335827 -0.00336145 -0.00344329 -0.00344485 -0.00344196 -0.00344329 -0.00353039 -0.00353058 -0.00344329 -0.00344485 -0.00353058 -0.003531 -0.00352914 -0.00353015 -0.00362332 -0.00362352 -0.00353015 -0.0035306 -0.00362352 -0.00362325 -0.00362332 -0.00362352 -0.00371664 -0.00371639 -0.00362352 -0.00362325 -0.00371639 -0.00371579 -0.0035306 -0.00353067 -0.00362