# vtk DataFile Version 3.0
#This file was generated by the deal.II library on 2018/7/10 at 10:46:57
ASCII
DATASET UNSTRUCTURED_GRID

POINTS 4096 double
0 0.5 0
0.03125 0.5 0
0 0.53125 0
0.03125 0.53125 0
0.03125 0.5 0
0.0625 0.5 0
0.03125 0.53125 0
0.0625 0.53125 0
0 0.53125 0
0.03125 0.53125 0
0 0.5625 0
0.03125 0.5625 0
0.03125 0.53125 0
0.0625 0.53125 0
0.03125 0.5625 0
0.0625 0.5625 0
0.0625 0.5 0
0.09375 0.5 0
0.0625 0.53125 0
0.09375 0.53125 0
0.09375 0.5 0
0.125 0.5 0
0.09375 0.53125 0
0.125 0.53125 0
0.0625 0.53125 0
0.09375 0.53125 0
0.0625 0.5625 0
0.09375 0.5625 0
0.09375 0.53125 0
0.125 0.53125 0
0.09375 0.5625 0
0.125 0.5625 0
0 0.5625 0
0.03125 0.5625 0
0 0.59375 0
0.03125 0.59375 0
0.03125 0.5625 0
0.0625 0.5625 0
0.03125 0.59375 0
0.0625 0.59375 0
0 0.59375 0
0.03125 0.59375 0
0 0.625 0
0.03125 0.625 0
0.03125 0.59375 0
0.0625 0.59375 0
0.03125 0.625 0
0.0625 0.625 0
0.0625 0.5625 0
0.09375 0.5625 0
0.0625 0.59375 0
0.09375 0.59375 0
0.09375 0.5625 0
0.125 0.5625 0
0.09375 0.59375 0
0.125 0.59375 0
0.0625 0.59375 0
0.09375 0.59375 0
0.0625 0.625 0
0.09375 0.625 0
0.09375 0.59375 0
0.125 0.59375 0
0.09375 0.625 0
0.125 0.625 0
0.125 0.5 0
0.15625 0.5 0
0.125 0.53125 0
0.15625 0.53125 0
0.15625 0.5 0
0.1875 0.5 0
0.15625 0.53125 0
0.1875 0.53125 0
0.125 0.53125 0
0.15625 0.53125 0
0.125 0.5625 0
0.15625 0.5625 0
0.15625 0.53125 0
0.1875 0.53125 0
0.15625 0.5625 0
0.1875 0.5625 0
0.1875 0.5 0
0.21875 0.5 0
0.1875 0.53125 0
0.21875 0.53125 0
0.21875 0.5 0
0.25 0.5 0
0.21875 0.53125 0
0.25 0.53125 0
0.1875 0.53125 0
0.21875 0.53125 0
0.1875 0.5625 0
0.21875 0.5625 0
0.21875 0.53125 0
0.25 0.53125 0
0.21875 0.5625 0
0.25 0.5625 0
0.125 0.5625 0
0.15625 0.5625 0
0.125 0.59375 0
0.15625 0.59375 0
0.15625 0.5625 0
0.1875 0.5625 0
0.15625 0.59375 0
0.1875 0.59375 0
0.125 0.59375 0
0.15625 0.59375 0
0.125 0.625 0
0.15625 0.625 0
0.15625 0.59375 0
0.1875 0.59375 0
0.15625 0.625 0
0.1875 0.625 0
0.1875 0.5625 0
0.21875 0.5625 0
0.1875 0.59375 0
0.21875 0.59375 0
0.21875 0.5625 0
0.25 0.5625 0
0.21875 0.59375 0
0.25 0.59375 0
0.1875 0.59375 0
0.21875 0.59375 0
0.1875 0.625 0
0.21875 0.625 0
0.21875 0.59375 0
0.25 0.59375 0
0.21875 0.625 0
0.25 0.625 0
0 0.625 0
0.03125 0.625 0
0 0.65625 0
0.03125 0.65625 0
0.03125 0.625 0
0.0625 0.625 0
0.03125 0.65625 0
0.0625 0.65625 0
0 0.65625 0
0.03125 0.65625 0
0 0.6875 0
0.03125 0.6875 0
0.03125 0.65625 0
0.0625 0.65625 0
0.03125 0.6875 0
0.0625 0.6875 0
0.0625 0.625 0
0.09375 0.625 0
0.0625 0.65625 0
0.09375 0.65625 0
0.09375 0.625 0
0.125 0.625 0
0.09375 0.65625 0
0.125 0.65625 0
0.0625 0.65625 0
0.09375 0.65625 0
0.0625 0.6875 0
0.09375 0.6875 0
0.09375 0.65625 0
0.125 0.65625 0
0.09375 0.6875 0
0.125 0.6875 0
0 0.6875 0
0.03125 0.6875 0
0 0.71875 0
0.03125 0.71875 0
0.03125 0.6875 0
0.0625 0.6875 0
0.03125 0.71875 0
0.0625 0.71875 0
0 0.71875 0
0.03125 0.71875 0
0 0.75 0
0.03125 0.75 0
0.03125 0.71875 0
0.0625 0.71875 0
0.03125 0.75 0
0.0625 0.75 0
0.0625 0.6875 0
0.09375 0.6875 0
0.0625 0.71875 0
0.09375 0.71875 0
0.09375 0.6875 0
0.125 0.6875 0
0.09375 0.71875 0
0.125 0.71875 0
0.0625 0.71875 0
0.09375 0.71875 0
0.0625 0.75 0
0.09375 0.75 0
0.09375 0.71875 0
0.125 0.71875 0
0.09375 0.75 0
0.125 0.75 0
0.125 0.625 0
0.15625 0.625 0
0.125 0.65625 0
0.15625 0.65625 0
0.15625 0.625 0
0.1875 0.625 0
0.15625 0.65625 0
0.1875 0.65625 0
0.125 0.65625 0
0.15625 0.65625 0
0.125 0.6875 0
0.15625 0.6875 0
0.15625 0.65625 0
0.1875 0.65625 0
0.15625 0.6875 0
0.1875 0.6875 0
0.1875 0.625 0
0.21875 0.625 0
0.1875 0.65625 0
0.21875 0.65625 0
0.21875 0.625 0
0.25 0.625 0
0.21875 0.65625 0
0.25 0.65625 0
0.1875 0.65625 0
0.21875 0.65625 0
0.1875 0.6875 0
0.21875 0.6875 0
0.21875 0.65625 0
0.25 0.65625 0
0.21875 0.6875 0
0.25 0.6875 0
0.125 0.6875 0
0.15625 0.6875 0
0.125 0.71875 0
0.15625 0.71875 0
0.15625 0.6875 0
0.1875 0.6875 0
0.15625 0.71875 0
0.1875 0.71875 0
0.125 0.71875 0
0.15625 0.71875 0
0.125 0.75 0
0.15625 0.75 0
0.15625 0.71875 0
0.1875 0.71875 0
0.15625 0.75 0
0.1875 0.75 0
0.1875 0.6875 0
0.21875 0.6875 0
0.1875 0.71875 0
0.21875 0.71875 0
0.21875 0.6875 0
0.25 0.6875 0
0.21875 0.71875 0
0.25 0.71875 0
0.1875 0.71875 0
0.21875 0.71875 0
0.1875 0.75 0
0.21875 0.75 0
0.21875 0.71875 0
0.25 0.71875 0
0.21875 0.75 0
0.25 0.75 0
0.25 0.5 0
0.28125 0.5 0
0.25 0.53125 0
0.28125 0.53125 0
0.28125 0.5 0
0.3125 0.5 0
0.28125 0.53125 0
0.3125 0.53125 0
0.25 0.53125 0
0.28125 0.53125 0
0.25 0.5625 0
0.28125 0.5625 0
0.28125 0.53125 0
0.3125 0.53125 0
0.28125 0.5625 0
0.3125 0.5625 0
0.3125 0.5 0
0.34375 0.5 0
0.3125 0.53125 0
0.34375 0.53125 0
0.34375 0.5 0
0.375 0.5 0
0.34375 0.53125 0
0.375 0.53125 0
0.3125 0.53125 0
0.34375 0.53125 0
0.3125 0.5625 0
0.34375 0.5625 0
0.34375 0.53125 0
0.375 0.53125 0
0.34375 0.5625 0
0.375 0.5625 0
0.25 0.5625 0
0.28125 0.5625 0
0.25 0.59375 0
0.28125 0.59375 0
0.28125 0.5625 0
0.3125 0.5625 0
0.28125 0.59375 0
0.3125 0.59375 0
0.25 0.59375 0
0.28125 0.59375 0
0.25 0.625 0
0.28125 0.625 0
0.28125 0.59375 0
0.3125 0.59375 0
0.28125 0.625 0
0.3125 0.625 0
0.3125 0.5625 0
0.34375 0.5625 0
0.3125 0.59375 0
0.34375 0.59375 0
0.34375 0.5625 0
0.375 0.5625 0
0.34375 0.59375 0
0.375 0.59375 0
0.3125 0.59375 0
0.34375 0.59375 0
0.3125 0.625 0
0.34375 0.625 0
0.34375 0.59375 0
0.375 0.59375 0
0.34375 0.625 0
0.375 0.625 0
0.375 0.5 0
0.40625 0.5 0
0.375 0.53125 0
0.40625 0.53125 0
0.40625 0.5 0
0.4375 0.5 0
0.40625 0.53125 0
0.4375 0.53125 0
0.375 0.53125 0
0.40625 0.53125 0
0.375 0.5625 0
0.40625 0.5625 0
0.40625 0.53125 0
0.4375 0.53125 0
0.40625 0.5625 0
0.4375 0.5625 0
0.4375 0.5 0
0.46875 0.5 0
0.4375 0.53125 0
0.46875 0.53125 0
0.46875 0.5 0
0.5 0.5 0
0.46875 0.53125 0
0.5 0.53125 0
0.4375 0.53125 0
0.46875 0.53125 0
0.4375 0.5625 0
0.46875 0.5625 0
0.46875 0.53125 0
0.5 0.53125 0
0.46875 0.5625 0
0.5 0.5625 0
0.375 0.5625 0
0.40625 0.5625 0
0.375 0.59375 0
0.40625 0.59375 0
0.40625 0.5625 0
0.4375 0.5625 0
0.40625 0.59375 0
0.4375 0.59375 0
0.375 0.59375 0
0.40625 0.59375 0
0.375 0.625 0
0.40625 0.625 0
0.40625 0.59375 0
0.4375 0.59375 0
0.40625 0.625 0
0.4375 0.625 0
0.4375 0.5625 0
0.46875 0.5625 0
0.4375 0.59375 0
0.46875 0.59375 0
0.46875 0.5625 0
0.5 0.5625 0
0.46875 0.59375 0
0.5 0.59375 0
0.4375 0.59375 0
0.46875 0.59375 0
0.4375 0.625 0
0.46875 0.625 0
0.46875 0.59375 0
0.5 0.59375 0
0.46875 0.625 0
0.5 0.625 0
0.25 0.625 0
0.28125 0.625 0
0.25 0.65625 0
0.28125 0.65625 0
0.28125 0.625 0
0.3125 0.625 0
0.28125 0.65625 0
0.3125 0.65625 0
0.25 0.65625 0
0.28125 0.65625 0
0.25 0.6875 0
0.28125 0.6875 0
0.28125 0.65625 0
0.3125 0.65625 0
0.28125 0.6875 0
0.3125 0.6875 0
0.3125 0.625 0
0.34375 0.625 0
0.3125 0.65625 0
0.34375 0.65625 0
0.34375 0.625 0
0.375 0.625 0
0.34375 0.65625 0
0.375 0.65625 0
0.3125 0.65625 0
0.34375 0.65625 0
0.3125 0.6875 0
0.34375 0.6875 0
0.34375 0.65625 0
0.375 0.65625 0
0.34375 0.6875 0
0.375 0.6875 0
0.25 0.6875 0
0.28125 0.6875 0
0.25 0.71875 0
0.28125 0.71875 0
0.28125 0.6875 0
0.3125 0.6875 0
0.28125 0.71875 0
0.3125 0.71875 0
0.25 0.71875 0
0.28125 0.71875 0
0.25 0.75 0
0.28125 0.75 0
0.28125 0.71875 0
0.3125 0.71875 0
0.28125 0.75 0
0.3125 0.75 0
0.3125 0.6875 0
0.34375 0.6875 0
0.3125 0.71875 0
0.34375 0.71875 0
0.34375 0.6875 0
0.375 0.6875 0
0.34375 0.71875 0
0.375 0.71875 0
0.3125 0.71875 0
0.34375 0.71875 0
0.3125 0.75 0
0.34375 0.75 0
0.34375 0.71875 0
0.375 0.71875 0
0.34375 0.75 0
0.375 0.75 0
0.375 0.625 0
0.40625 0.625 0
0.375 0.65625 0
0.40625 0.65625 0
0.40625 0.625 0
0.4375 0.625 0
0.40625 0.65625 0
0.4375 0.65625 0
0.375 0.65625 0
0.40625 0.65625 0
0.375 0.6875 0
0.40625 0.6875 0
0.40625 0.65625 0
0.4375 0.65625 0
0.40625 0.6875 0
0.4375 0.6875 0
0.4375 0.625 0
0.46875 0.625 0
0.4375 0.65625 0
0.46875 0.65625 0
0.46875 0.625 0
0.5 0.625 0
0.46875 0.65625 0
0.5 0.65625 0
0.4375 0.65625 0
0.46875 0.65625 0
0.4375 0.6875 0
0.46875 0.6875 0
0.46875 0.65625 0
0.5 0.65625 0
0.46875 0.6875 0
0.5 0.6875 0
0.375 0.6875 0
0.40625 0.6875 0
0.375 0.71875 0
0.40625 0.71875 0
0.40625 0.6875 0
0.4375 0.6875 0
0.40625 0.71875 0
0.4375 0.71875 0
0.375 0.71875 0
0.40625 0.71875 0
0.375 0.75 0
0.40625 0.75 0
0.40625 0.71875 0
0.4375 0.71875 0
0.40625 0.75 0
0.4375 0.75 0
0.4375 0.6875 0
0.46875 0.6875 0
0.4375 0.71875 0
0.46875 0.71875 0
0.46875 0.6875 0
0.5 0.6875 0
0.46875 0.71875 0
0.5 0.71875 0
0.4375 0.71875 0
0.46875 0.71875 0
0.4375 0.75 0
0.46875 0.75 0
0.46875 0.71875 0
0.5 0.71875 0
0.46875 0.75 0
0.5 0.75 0
0 0.75 0
0.03125 0.75 0
0 0.78125 0
0.03125 0.78125 0
0.03125 0.75 0
0.0625 0.75 0
0.03125 0.78125 0
0.0625 0.78125 0
0 0.78125 0
0.03125 0.78125 0
0 0.8125 0
0.03125 0.8125 0
0.03125 0.78125 0
0.0625 0.78125 0
0.03125 0.8125 0
0.0625 0.8125 0
0.0625 0.75 0
0.09375 0.75 0
0.0625 0.78125 0
0.09375 0.78125 0
0.09375 0.75 0
0.125 0.75 0
0.09375 0.78125 0
0.125 0.78125 0
0.0625 0.78125 0
0.09375 0.78125 0
0.0625 0.8125 0
0.09375 0.8125 0
0.09375 0.78125 0
0.125 0.78125 0
0.09375 0.8125 0
0.125 0.8125 0
0 0.8125 0
0.03125 0.8125 0
0 0.84375 0
0.03125 0.84375 0
0.03125 0.8125 0
0.0625 0.8125 0
0.03125 0.84375 0
0.0625 0.84375 0
0 0.84375 0
0.03125 0.84375 0
0 0.875 0
0.03125 0.875 0
0.03125 0.84375 0
0.0625 0.84375 0
0.03125 0.875 0
0.0625 0.875 0
0.0625 0.8125 0
0.09375 0.8125 0
0.0625 0.84375 0
0.09375 0.84375 0
0.09375 0.8125 0
0.125 0.8125 0
0.09375 0.84375 0
0.125 0.84375 0
0.0625 0.84375 0
0.09375 0.84375 0
0.0625 0.875 0
0.09375 0.875 0
0.09375 0.84375 0
0.125 0.84375 0
0.09375 0.875 0
0.125 0.875 0
0.125 0.75 0
0.15625 0.75 0
0.125 0.78125 0
0.15625 0.78125 0
0.15625 0.75 0
0.1875 0.75 0
0.15625 0.78125 0
0.1875 0.78125 0
0.125 0.78125 0
0.15625 0.78125 0
0.125 0.8125 0
0.15625 0.8125 0
0.15625 0.78125 0
0.1875 0.78125 0
0.15625 0.8125 0
0.1875 0.8125 0
0.1875 0.75 0
0.21875 0.75 0
0.1875 0.78125 0
0.21875 0.78125 0
0.21875 0.75 0
0.25 0.75 0
0.21875 0.78125 0
0.25 0.78125 0
0.1875 0.78125 0
0.21875 0.78125 0
0.1875 0.8125 0
0.21875 0.8125 0
0.21875 0.78125 0
0.25 0.78125 0
0.21875 0.8125 0
0.25 0.8125 0
0.125 0.8125 0
0.15625 0.8125 0
0.125 0.84375 0
0.15625 0.84375 0
0.15625 0.8125 0
[...]
POINT_DATA 4096
SCALARS State_InstatPDEProblemContainer_0 double 1
LOOKUP_TABLE default
-0.00125585 -0.00125557 -0.00134359 -0.00134341 -0.00125557 -0.0012553 -0.00134341 -0.00134344 -0.00134359 -0.00134341 -0.00143091 -0.00143083 -0.00134341 -0.00134344 -0.00143083 -0.00143115 -0.0012553 -0.00125504 -0.00134344 -0.00134369 -0.00125504 -0.00125479 -0.00134369 -0.00134418 -0.00134344 -0.00134369 -0.00143115 -0.00143188 -0.00134369 -0.00134418 -0.00143188 -0.00143305 -0.00143091 -0.00143083 -0.00151746 -0.00151747 -0.00143083 -0.00143115 -0.00151747 -0.00151804 -0.00151746 -0.00151747 -0.00160292 -0.001603 -0.00151747 -0.00151804 -0.001603 -0.00160377 -0.00143115 -0.00143188 -0.00151804 -0.00151917 -0.00143188 -0.00143305 -0.00151917 -0.00152093 -0.00151804 -0.00151917 -0.00160377 -0.00160523 -0.00151917 -0.00152093 -0.00160523 -0.00160744 -0.00125479 -0.00125453 -0.00134418 -0.00134492 -0.00125453 -0.00125427 -0.00134492 -0.00134598 -0.00134418 -0.00134492 -0.00143305 -0.00143472 -0.00134492 -0.00134598 -0.00143472 -0.00143697 -0.00125427 -0.00125401 -0.00134598 -0.0013474 -0.00125401 -0.00125374 -0.0013474 -0.0013493 -0.00134598 -0.0013474 -0.00143697 -0.00143992 -0.0013474 -0.0013493 -0.00143992 -0.00144374 -0.00143305 -0.00143472 -0.00152093 -0.00152339 -0.00143472 -0.00143697 -0.00152339 -0.00152663 -0.00152093 -0.00152339 -0.00160744 -0.00161048 -0.00152339 -0.00152663 -0.00161048 -0.00161444 -0.00143697 -0.00143992 -0.00152663 -0.00153081 -0.00143992 -0.00144374 -0.00153081 -0.00153611 -0.00152663 -0.00153081 -0.00161444 -0.00161947 -0.00153081 -0.00153611 -0.00161947 -0.00162574 -0.00160292 -0.001603 -0.00168701 -0.00168716 -0.001603 -0.00160377 -0.00168716 -0.00168806 -0.00168701 -0.00168716 -0.00176953 -0.00176972 -0.00168716 -0.00168806 -0.00176972 -0.00177071 -0.00160377 -0.00160523 -0.00168806 -0.00168975 -0.00160523 -0.00160744 -0.00168975 -0.00169227 -0.00168806 -0.00168975 -0.00177071 -0.00177252 -0.00168975 -0.00169227 -0.00177252 -0.00177519 -0.00176953 -0.00176972 -0.00185033 -0.00185054 -0.00176972 -0.00177071 -0.00185054 -0.00185156 -0.00185033 -0.00185054 -0.00192932 -0.00192953 -0.00185054 -0.00185156 -0.00192953 -0.00193053 -0.00177071 -0.00177252 -0.00185156 -0.0018534 -0.00177252 -0.00177519 -0.0018534 -0.0018561 -0.00185156 -0.0018534 -0.00193053 -0.00193233 -0.0018534 -0.0018561 -0.00193233 -0.00193494 -0.00160744 -0.00161048 -0.00169227 -0.00169568 -0.00161048 -0.00161444 -0.00169568 -0.00170008 -0.00169227 -0.00169568 -0.00177519 -0.00177878 -0.00169568 -0.00170008 -0.00177878 -0.00178334 -0.00161444 -0.00161947 -0.00170008 -0.00170557 -0.00161947 -0.00162574 -0.00170557 -0.00171229 -0.00170008 -0.00170557 -0.00178334 -0.00178894 -0.00170557 -0.00171229 -0.00178894 -0.00179568 -0.00177519 -0.00177878 -0.0018561 -0.00185968 -0.00177878 -0.00178334 -0.00185968 -0.00186417 -0.0018561 -0.00185968 -0.00193494 -0.00193836 -0.00185968 -0.00186417 -0.00193836 -0.00194261 -0.00178334 -0.00178894 -0.00186417 -0.00186961 -0.00178894 -0.00179568 -0.00186961 -0.00187603 -0.00186417 -0.00186961 -0.00194261 -0.00194769 -0.00186961 -0.00187603 -0.00194769 -0.00195357 -0.00125374 -0.00125345 -0.0013493 -0.0013518 -0.00125345 -0.00125314 -0.0013518 -0.00135515 -0.0013493 -0.0013518 -0.00144374 -0.00144867 -0.0013518 -0.00135515 -0.00144867 -0.00145509 -0.00125314 -0.0012528 -0.00135515 -0.0013597 -0.0012528 -0.00125241 -0.0013597 -0.00136609 -0.00135515 -0.0013597 -0.00145509 -0.00146354 -0.0013597 -0.00136609 -0.00146354 -0.00147491 -0.00144374 -0.00144867 -0.00153611 -0.00154283 -0.00144867 -0.00145509 -0.00154283 -0.00155133 -0.00153611 -0.00154283 -0.00162574 -0.0016335 -0.00154283 -0.00155133 -0.0016335 -0.00164303 -0.00145509 -0.00146354 -0.00155133 -0.00156213 -0.00146354 -0.00147491 -0.00156213 -0.00157593 -0.00155133 -0.00156213 -0.00164303 -0.00165467 -0.00156213 -0.00157593 -0.00165467 -0.00166874 -0.00125241 -0.00125193 -0.00136609 -0.00137549 -0.00125193 -0.00125127 -0.00137549 -0.00139046 -0.00136609 -0.00137549 -0.00147491 -0.00149061 -0.00137549 -0.00139046 -0.00149061 -0.00151274 -0.00125127 -0.00125009 -0.00139046 -0.00141677 -0.00125009 -0.00124853 -0.00141677 -0.0014739 -0.00139046 -0.00141677 -0.00151274 -0.00154447 -0.00141677 -0.0014739 -0.00154447 -0.00157787 -0.00147491 -0.00149061 -0.00157593 -0.0015935 -0.00149061 -0.00151274 -0.0015935 -0.0016155 -0.00157593 -0.0015935 -0.00166874 -0.00168538 -0.0015935 -0.0016155 -0.00168538 -0.0017041 -0.00151274 -0.00154447 -0.0016155 -0.00164027 -0.00154447 -0.00157787 -0.00164027 -0.00166569 -0.0016155 -0.00164027 -0.0017041 -0.00172373 -0.00164027 -0.00166569 -0.00172373 -0.0017426 -0.00162574 -0.0016335 -0.00171229 -0.0017204 -0.0016335 -0.00164303 -0.0017204 -0.00173007 -0.00171229 -0.0017204 -0.00179568 -0.00180361 -0.0017204 -0.00173007 -0.00180361 -0.0018128 -0.00164303 -0.00165467 -0.00173007 -0.00174143 -0.00165467 -0.00166874 -0.00174143 -0.00175448 -0.00173007 -0.00174143 -0.0018128 -0.0018232 -0.00174143 -0.00175448 -0.0018232 -0.00183467 -0.00179568 -0.00180361 -0.00187603 -0.00188342 -0.00180361 -0.0018128 -0.00188342 -0.00189175 -0.00187603 -0.00188342 -0.00195357 -0.0019602 -0.00188342 -0.00189175 -0.0019602 -0.00196749 -0.0018128 -0.0018232 -0.00189175 -0.00190088 -0.0018232 -0.00183467 -0.00190088 -0.00191062 -0.00189175 -0.00190088 -0.00196749 -0.00197527 -0.00190088 -0.00191062 -0.00197527 -0.00198332 -0.00166874 -0.00168538 -0.00175448 -0.001769 -0.00168538 -0.0017041 -0.001769 -0.00178439 -0.00175448 -0.001769 -0.00183467 -0.00184686 -0.001769 -0.00178439 -0.00184686 -0.00185923 -0.0017041 -0.00172373 -0.00178439 -0.00179969 -0.00172373 -0.0017426 -0.00179969 -0.0018141 -0.00178439 -0.00179969 -0.00185923 -0.00187115 -0.00179969 -0.0018141 -0.00187115 -0.00188214 -0.00183467 -0.00184686 -0.00191062 -0.0019206 -0.00184686 -0.00185923 -0.0019206 -0.0019304 -0.00191062 -0.0019206 -0.00198332 -0.00199133 -0.0019206 -0.0019304 -0.00199133 -0.00199899 -0.00185923 -0.00187115 -0.0019304 -0.00193961 -0.00187115 -0.00188214 -0.00193961 -0.00194795 -0.0019304 -0.00193961 -0.00199899 -0.00200601 -0.00193961 -0.00194795 -0.00200601 -0.00201223 -0.00192932 -0.00192953 -0.00200646 -0.00200666 -0.00192953 -0.00193053 -0.00200666 -0.0020076 -0.00200646 -0.00200666 -0.00208176 -0.00208194 -0.00200666 -0.0020076 -0.00208194 -0.00208279 -0.00193053 -0.00193233 -0.0020076 -0.00200929 -0.00193233 -0.00193494 -0.00200929 -0.00201172 -0.0020076 -0.00200929 -0.00208279 -0.00208432 -0.00200929 -0.00201172 -0.00208432 -0.00208651 -0.00208176 -0.00208194 -0.00215527 -0.00215542 -0.00208194 -0.00208279 -0.00215542 -0.00215617 -0.00215527 -0.00215542 -0.00222709 -0.0022272 -0.00215542 -0.00215617 -0.0022272 -0.00222782 -0.00208279 -0.00208432 -0.00215617 -0.0021575 -0.00208432 -0.00208651 -0.0021575 -0.0021594 -0.00215617 -0.0021575 -0.00222782 -0.00222893 -0.0021575 -0.0021594 -0.00222893 -0.00223051 -0.00193494 -0.00193836 -0.00201172 -0.00201488 -0.00193836 -0.00194261 -0.00201488 -0.00201877 -0.00201172 -0.00201488 -0.00208651 -0.00208934 -0.00201488 -0.00201877 -0.00208934 -0.00209277 -0.00194261 -0.00194769 -0.00201877 -0.00202334 -0.00194769 -0.00195357 -0.00202334 -0.00202856 -0.00201877 -0.00202334 -0.00209277 -0.00209677 -0.00202334 -0.00202856 -0.00209677 -0.00210126 -0.00208651 -0.00208934 -0.0021594 -0.00216184 -0.00208934 -0.00209277 -0.00216184 -0.00216478 -0.0021594 -0.00216184 -0.00223051 -0.00223253 -0.00216184 -0.00216478 -0.00223253 -0.00223494 -0.00209277 -0.00209677 -0.00216478 -0.00216816 -0.00209677 -0.00210126 -0.00216816 -0.00217191 -0.00216478 -0.00216816 -0.00223494 -0.0022377 -0.00216816 -0.00217191 -0.0022377 -0.00224071 -0.00222709 -0.0022272 -0.00229733 -0.0022974 -0.0022272 -0.00222782 -0.0022974 -0.00229787 -0.00229733 -0.0022974 -0.00236612 -0.00236615 -0.0022974 -0.00229787 -0.00236615 -0.00236646 -0.00222782 -0.00222893 -0.00229787 -0.00229873 -0.00222893 -0.00223051 -0.00229873 -0.00229996 -0.00229787 -0.00229873 -0.00236646 -0.00236706 -0.00229873 -0.00229996 -0.00236706 -0.00236792 -0.00236612 -0.00236615 -0.00243365 -0.00243361 -0.00236615 -0.00236646 -0.00243361 -0.00243376 -0.00243365 -0.00243361 -0.0025 -0.0025 -0.00243361 -0.00243376 -0.0025 -0.0025 -0.00236646 -0.00236706 -0.00243376 -0.00243408 -0.00236706 -0.00236792 -0.00243408 -0.00243453 -0.00243376 -0.00243408 -0.0025 -0.0025 -0.00243408 -0.00243453 -0.0025 -0.0025 -0.00223051 -0.00223253 -0.00229996 -0.00230154 -0.00223253 -0.00223494 -0.00230154 -0.00230341 -0.00229996 -0.00230154 -0.00236792 -0.00236902 -0.00230154 -0.00230341 -0.00236902 -0.00237032 -0.00223494 -0.0022377 -0.00230341 -0.00230552 -0.0022377 -0.00224071 -0.00230552 -0.00230781 -0.00230341 -0.00230552 -0.00237032 -0.00237178 -0.00230552 -0.00230781 -0.00237178 -0.00237334 -0.00236792 -0.00236902 -0.00243453 -0.00243512 -0.00236902 -0.00237032 -0.00243512 -0.0024358 -0.00243453 -0.00243512 -0.0025 -0.0025 -0.00243512 -0.0024358 -0.0025 -0.0025 -0.00237032 -0.00237178 -0.0024358 -0.00243657 -0.00237178 -0.00237334 -0.00243657 -0.00243739 -0.0024358 -0.00243657 -0.0025 -0.0025 -0.00243657 -0.00243739 -0.0025 -0.0025 -0.00195357 -0.0019602 -0.00202856 -0.00203433 -0.0019602 -0.00196749 -0.00203433 -0.00204053 -0.00202856 -0.00203433 -0.00210126 -0.00210614 -0.00203433 -0.00204053 -0.00210614 -0.00211128 -0.00196749 -0.00197527 -0.00204053 -0.00204699 -0.00197527 -0.00198332 -0.00204699 -0.0020535 -0.00204053 -0.00204699 -0.00211128 -0.00211651 -0.00204699 -0.0020535 -0.00211651 -0.00212166 -0.00210126 -0.00210614 -0.00217191 -0.00217592 -0.00210614 -0.00211128 -0.00217592 -0.00218006 -0.00217191 -0.00217592 -0.00224071 -0.00224388 -0.00217592 -0.00218006 -0.00224388 -0.0022471 -0.00211128 -0.00211651 -0.00218006 -0.00218418 -0.00211651 -0.00212166 -0.00218418 -0.00218814 -0.00218006 -0.00218418 -0.0022471 -0.00225024 -0.00218418 -0.00218814 -0.00225024 -0.00225318 -0.00198332 -0.00199133 -0.0020535 -0.00205981 -0.00199133 -0.00199899 -0.00205981 -0.00206568 -0.0020535 -0.00205981 -0.00212166 -0.00212651 -0.00205981 -0.00206568 -0.00212651 -0.0021309 -0.00199899 -0.00200601 -0.00206568 -0.00207092 -0.00200601 -0.00201223 -0.00207092 -0.00207543 -0.00206568 -0.00207092 -0.0021309 -0.0021347 -0.00207092 -0.00207543 -0.0021347 -0.00213784 -0.00212166 -0.00212651 -0.00218814 -0.00219177 -0.00212651 -0.0021309 -0.00219177 -0.00219495 -0.00218814 -0.00219177 -0.00225318 -0.00225579 -0.00219177 -0.00219495 -0.00225579 -0.00225797 -0.0021309 -0.0021347 -0.00219495 -0.00219757 -0.0021347 -0.00213784 -0.00219757 -0.00219962 -0.00219495 -0.00219757 -0.00225797 -0.00225967 -0.00219757 -0.00219962 -0.00225967 -0.00226087 -0.00224071 -0.00224388 -0.00230781 -0.00231019 -0.00224388 -0.0022471 -0.00231019 -0.00231256 -0.00230781 -0.00231019 -0.00237334 -0.00237495 -0.00231019 -0.00231256 -0.00237495 -0.00237653 -0.0022471 -0.00225024 -0.00231256 -0.00231483 -0.00225024 -0.00225318 -0.00231483 -0.00231689 -0.00231256 -0.00231483 -0.00237653 -0.002378 -0.00231483 -0.00231689 -0.002378 -0.00237931 -0.00237334 -0.00237495 -0.00243739 -0.00243822 -0.00237495 -0.00237653 -0.00243822 -0.00243902 -0.00243739 -0.00243822 -0.0025 -0.0025 -0.00243822 -0.00243902 -0.0025 -0.0025 -0.00237653 -0.002378 -0.00243902 -0.00243976 -0.002378 -0.00237931 -0.00243976 -0.00244039 -0.00243902 -0.00243976 -0.0025 -0.0025 -0.00243976 -0.00244039 -0.0025 -0.0025 -0.00225318 -0.00225579 -0.00231689 -0.00231865 -0.00225579 -0.00225797 -0.00231865 -0.00232004 -0.00231689 -0.00231865 -0.00237931 -0.00238037 -0.00231865 -0.00232004 -0.00238037 -0.00238115 -0.00225797 -0.00225967 -0.00232004 -0.00232103 -0.00225967 -0.00226087 -0.00232103 -0.0023216 -0.00232004 -0.00232103 -0.00238115 -0.00238162 -0.00232103 -0.0023216 -0.00238162 -0.00238178 -0.00237931 -0.00238037 -0.00244039 -0.00244088 -0.00238037 -0.00238115 -0.00244088 -0.0024412 -0.00244039 -0.00244088 -0.0025 -0.0025 -0.00244088 -0.0024412 -0.0025 -0.0025 -0.00238115 -0.00238162 -0.0024412 -0.00244134 -0.00238162 -0.00238178 -0.00244134 -0.00244131 -0.0024412 -0.00244134 -0.0025 -0.0025 -0.00244134 -0.00244131 -0.0025 -0.0025 -0.00124853 -0.0014388 -0.0014739 -0.00151984 -0.0014388 -0.00155174 -0.00151984 -0.00158316 -0.0014739 -0.00151984 -0.00157787 -0.00161265 -0.00151984 -0.00158316 -0.00161265 -0.00164615 -0.00155174 -0.00162845 -0.00158316 -0.00164282 -0.00162845 -0.00168648 -0.00164282 -0.0016938 -0.00158316 -0.00164282 -0.00164615 -0.00168451 -0.00164282 -0.0016938 -0.00168451 -0.00172267 -0.00157787 -0.00161265 -0.00166569 -0.00168919 -0.00161265 -0.00164615 -0.00168919 -0.00171286 -0.00166569 -0.00168919 -0.0017426 -0.00176021 -0.00168919 -0.00171286 -0.00176021 -0.00177719 -0.00164615 -0.00168451 -0.00171286 -0.00173799 -0.00168451 -0.00172267 -0.00173799 -0.00176485 -0.00171286 -0.00173799 -0.00177719 -0.00179497 -0.00173799 -0.00176485 -0.00179497 -0.0018139 -0.00168648 -0.00173271 -0.0016938 -0.00173668 -0.00173271 -0.00177053 -0.00173668 -0.00177278 -0.0016938 -0.00173668 -0.00172267 -0.00175782 -0.00173668 -0.00177278 -0.00175782 -0.00178907 -0.00177053 -0.00180186 -0.00177278 -0.0018032 -0.00180186 -0.00182792 -0.0018032 -0.00182883 -0.00177278 -0.0018032 -0.00178907 -0.00181636 -0.0018032 -0.00182883 -0.00181636 -0.0018399 -0.00172267 -0.00175782 -0.00176485 -0.00179157 -0.00175782 -0.00178907 -0.00179157 -0.00181677 -0.00176485 -0.00179157 -0.0018139 -0.00183352 -0.00179157 -0.00181677 -0.00183352 -0.0018529 -0.00178907 -0.00181636 -0.00181677 -0.00183971 -0.00181636 -0.0018399 -0.00183971 -0.00186011 -0.00181677 -0.00183971 -0.0018529 -0.00187126 -0.00183971 -0.00186011 -0.00187126 -0.0018881 -0.0017426 -0.00176021 -0.0018141 -0.00182734 -0.00176021 -0.00177719 -0.00182734 -0.00183995 -0.0018141 -0.00182734 -0.00188214 -0.00189214 -0.00182734 -0.00183995 -0.00189214 -0.0019015 -0.00177719 -0.00179497 -0.00183995 -0.00185276 -0.00179497 -0.0018139 -0.00185276 -0.00186629 -0.00183995 -0.00185276 -0.0019015 -0.00191079 -0.00185276 -0.00186629 -0.00191079 -0.00192045 -0.00188214 -0.00189214 -0.00194795 -0.00195542 -0.00189214 -0.0019015 -0.00195542 -0.00196227 -0.00194795 -0.00195542 -0.00201223 -0.00201769 -0.00195542 -0.00196227 -0.00201769 -0.00202256 -0.0019015 -0.00191079 -0.00196227 -0.00196892 -0.00191079 -0.00192045 -0.00196892 -0.00197571 -0.00196227 -0.00196892 -0.00202256 -0.00202716 -0.00196892 -0.00197571 -0.00202716 -0.00203177 -0.0018139 -0.00183352 -0.00186629 -0.0018805 -0.00183352 -0.0018529 -0.0018805 -0.00189496 -0.00186629 -0.0018805 -0.00192045 -0.00193062 -0.0018805 -0.00189496 -0.00193062 -0.00194114 -0.0018529 -0.00187126 -0.00189496 -0.0019091 -0.00187126 -0.0018881 -0.0019091 -0.00192245 -0.00189496 -0.0019091 -0.00194114 -0.00195168 -0.0019091 -0.00192245 -0.00195168 -0.00196189 -0.00192045 -0.00193062 -0.00197571 -0.00198283 -0.00193062 -0.00194114 -0.00198283 -0.00199028 -0.00197571 -0.00198283 -0.00203177 -0.00203658 -0.00198283 -0.00199028 -0.00203658 -0.00204163 -0.00194114 -0.00195168 -0.00199028 -0.00199788 -0.00195168 -0.00196189 -0.00199788 -0.0020054 -0.00199028 -0.00199788 -0.00204163 -0.00204688 -0.00199788 -0.0020054 -0.00204688 -0.00205218 -0.00182792 -0.00184958 -0.00182883 -0.00185029 -0.00184958 -0.00186742 -0.00185029 -0.0018681 -0.00182883 -0.00185029 -0.0018399 -0.00185995 -0.00185029 -0.0018681 -0.00185995 -0.00187679 -0.00186742 -0.00188189 -0.0018681 -0.00188263 -0.00188189 -0.00189334 -0.00188263 -0.00189417 -0.0018681 -0.00188263 -0.00187679 -0.00189066 -0.00188263 -0.00189417 -0.00189066 -0.00190175 -0.0018399 -0.00185995 -0.00186011 -0.00187788 -0.00185995 -0.00187679 -0.00187788 -0.00189306 -0.00186011 -0.00187788 -0.0018881 -0.00190314 -0.00187788 -0.00189306 -0.00190314 -0.00191623 -0.00187679 -0.00189066 -0.00189306 -0.00190571 -0.00189066 -0.00190175 -0.00190571 -0.00191592 -0.00189306 -0.00190571 -0.00191623 -0.0019273 -0.00190571 -0.00191592 -0.0019273 -0.00193633 -0.00189334 -0.00190201 -0.00189417 -0.00190293 -0.00190201 -0.00190808 -0.00190293 -0.00190908 -0.00189417 -0.00190293 -0.00190175 -0.00191021 -0.00190293 -0.00190908 -0.00191021 -0.00191618 -0.00190808 -0.00191167 -0.00190908 -0.00191273 -0.00191167 -0.00191286 -0.00191273 -0.00191394 -0.00190908 -0.00191273 -0.00191618 -0.00191972 -0.00191273 -0.00191394 -0.00191972 -0.0019209 -0.00190175 -0.00191021 -0.00191592 -0.00192377 -0.00191021 -0.00191618 -0.00192377 -0.00192932 -0.00191592 -0.00192377 -0.00193633 -0.00194332 -0.00192377 -0.00192932 -0.00194332 -0.0019483 -0.00191618 -0.00191972 -0.00192932 -0.00193263 -0.00191972 -0.0019209 -0.00193263 -0.00193372 -0.00192932 -0.00193263 -0.0019483 -0.00195128 -0.00193263 -0.00193372 -0.00195128 -0.00195227 -0.0018881 -0.00190314 -0.00192245 -0.00193467 -0.00190314 -0.00191623 -0.00193467 -0.00194551 -0.00192245 -0.00193467 -0.00196189 -0.00197144 -0.00193467 -0.00194551 -0.00197144 -0.00198008 -0.00191623 -0.0019273 -0.00194551 -0.00195482 -0.0019273 -0.00193633 -0.00195482 -0.00196251 -0.00194551 -0.00195482 -0.00198008 -0.00198762 -0.00195482 -0.00196251 -0.00198762 -0.00199392 -0.00196189 -0.00197144 -0.0020054 -0.00201258 -0.00197144 -0.00198008 -0.00201258 -0.0020192 -0.0020054 -0.00201258 -0.00205218 -0.00205734 -0.00201258 -0.0020192 -0.00205734 -0.00206219 -0.00198008 -0.00198762 -0.0020192 -0.00202506 -0.00198762 -0.00199392 -0.00202506 -0.00203003 -0.0020192 -0.00202506 -0.00206219 -0.00206656 -0.00202506 -0.00203003 -0.00206656 -0.00207031 -0.00193633 -0.00194332 -0.00196251 -0.00196852 -0.00194332 -0.0019483 -0.00196852 -0.00197282 -0.00196251 -0.00196852 -0.00199392 -0.0019989 -0.00196852 -0.00197282 -0.0019989 -0.00200248 -0.0019483 -0.00195128 -0.00197282 -0.0019754 -0.00195128 -0.00195227 -0.0019754 -0.00197625 -0.00197282 -0.0019754 -0.00200248 -0.00200464 -0.0019754 -0.00197625 -0.00200464 -0.00200535 -0.00199392 -0.0019989 -0.00203003 -0.00203399 -0.0019989 -0.00200248 -0.00203399 -0.00203686 -0.00203003 -0.00203399 -0.00207031 -0.00207333 -0.00203399 -0.00203686 -0.00207333 -0.00207554 -0.00200248 -0.00200464 -0.00203686 -0.0020386 -0.00200464 -0.00200535 -0.0020386 -0.00203916 -0.00203686 -0.0020386 -0.00207554 -0.00207687 -0.0020386 -0.00203916 -0.00207687 -0.0020773 -0.00201223 -0.00201769 -0.00207543 -0.00207927 -0.00201769 -0.00202256 -0.00207927 -0.00208257 -0.00207543 -0.00207927 -0.00213784 -0.00214038 -0.00207927 -0.00208257 -0.00214038 -0.00214244 -0.00202256 -0.00202716 -0.00208257 -0.00208558 -0.00202716 -0.00203177 -0.00208558 -0.0020885 -0.00208257 -0.00208558 -0.00214244 -0.00214419 -0.00208558 -0.0020885 -0.00214419 -0.00214583 -0.00213784 -0.00214038 -0.00219962 -0.00220114 -0.00214038 -0.00214244 -0.00220114 -0.00220223 -0.00219962 -0.00220114 -0.00226087 -0.00226161 -0.00220114 -0.00220223 -0.00226161 -0.00226198 -0.00214244 -0.00214419 -0.00220223 -0.00220303 -0.00214419 -0.00214583 -0.00220303 -0.0022037 -0.00220223 -0.00220303 -0.00226198 -0.00226209 -0.00220303 -0.0022037 -0.00226209 -0.00226207 -0.00203177 -0.00203658 -0.0020885 -0.00209153 -0.00203658 -0.00204163 -0.00209153 -0.00209474 -0.0020885 -0.00209153 -0.00214583 -0.0021475 -0.00209153 -0.00209474 -0.0021475 -0.00214931 -0.00204163 -0.00204688 -0.00209474 -0.00209814 -0.00204688 -0.00205218 -0.00209814 -0.00210165 -0.00209474 -0.00209814 -0.00214931 -0.00215128 -0.00209814 -0.00210165 -0.00215128 -0.00215339 -0.00214583 -0.0021475 -0.0022037 -0.00220436 -0.0021475 -0.00214931 -0.00220436 -0.00220513 -0.0022037 -0.00220436 -0.00226207 -0.00226204 -0.00220436 -0.00220513 -0.00226204 -0.00226208 -0.00214931 -0.00215128 -0.00220513 -0.00220604 -0.00215128 -0.00215339 -0.00220604 -0.0022071 -0.00220513 -0.00220604 -0.00226208 -0.00226224 -0.00220604 -0.0022071 -0.00226224 -0.00226255 -0.00226087 -0.00226161 -0.0023216 -0.0023218 -0.00226161 -0.00226198 -0.0023218 -0.00232169 -0.0023216 -0.0023218 -0.00238178 -0.00238167 -0.0023218 -0.00232169 -0.00238167 -0.00238132 -0.00226198 -0.00226209 -0.00232169 -0.00232136 -0.00226209 -0.00226207 -0.00232136 -0.00232093 -0.00232169 -0.00232136 -0.0023