# vtk DataFile Version 3.0
#This file was generated by the deal.II library on 2018/7/10 at 10:46:55
ASCII
DATASET UNSTRUCTURED_GRID

POINTS 4096 double
0 0.5 0
0.03125 0.5 0
0 0.53125 0
0.03125 0.53125 0
0.03125 0.5 0
0.0625 0.5 0
0.03125 0.53125 0
0.0625 0.53125 0
0 0.53125 0
0.03125 0.53125 0
0 0.5625 0
0.03125 0.5625 0
0.03125 0.53125 0
0.0625 0.53125 0
0.03125 0.5625 0
0.0625 0.5625 0
0.0625 0.5 0
0.09375 0.5 0
0.0625 0.53125 0
0.09375 0.53125 0
0.09375 0.5 0
0.125 0.5 0
0.09375 0.53125 0
0.125 0.53125 0
0.0625 0.53125 0
0.09375 0.53125 0
0.0625 0.5625 0
0.09375 0.5625 0
0.09375 0.53125 0
0.125 0.53125 0
0.09375 0.5625 0
0.125 0.5625 0
0 0.5625 0
0.03125 0.5625 0
0 0.59375 0
0.03125 0.59375 0
0.03125 0.5625 0
0.0625 0.5625 0
0.03125 0.59375 0
0.0625 0.59375 0
0 0.59375 0
0.03125 0.59375 0
0 0.625 0
0.03125 0.625 0
0.03125 0.59375 0
0.0625 0.59375 0
0.03125 0.625 0
0.0625 0.625 0
0.0625 0.5625 0
0.09375 0.5625 0
0.0625 0.59375 0
0.09375 0.59375 0
0.09375 0.5625 0
0.125 0.5625 0
0.09375 0.59375 0
0.125 0.59375 0
0.0625 0.59375 0
0.09375 0.59375 0
0.0625 0.625 0
0.09375 0.625 0
0.09375 0.59375 0
0.125 0.59375 0
0.09375 0.625 0
0.125 0.625 0
0.125 0.5 0
0.15625 0.5 0
0.125 0.53125 0
0.15625 0.53125 0
0.15625 0.5 0
0.1875 0.5 0
0.15625 0.53125 0
0.1875 0.53125 0
0.125 0.53125 0
0.15625 0.53125 0
0.125 0.5625 0
0.15625 0.5625 0
0.15625 0.53125 0
0.1875 0.53125 0
0.15625 0.5625 0
0.1875 0.5625 0
0.1875 0.5 0
0.21875 0.5 0
0.1875 0.53125 0
0.21875 0.53125 0
0.21875 0.5 0
0.25 0.5 0
0.21875 0.53125 0
0.25 0.53125 0
0.1875 0.53125 0
0.21875 0.53125 0
0.1875 0.5625 0
0.21875 0.5625 0
0.21875 0.53125 0
0.25 0.53125 0
0.21875 0.5625 0
0.25 0.5625 0
0.125 0.5625 0
0.15625 0.5625 0
0.125 0.59375 0
0.15625 0.59375 0
0.15625 0.5625 0
0.1875 0.5625 0
0.15625 0.59375 0
0.1875 0.59375 0
0.125 0.59375 0
0.15625 0.59375 0
0.125 0.625 0
0.15625 0.625 0
0.15625 0.59375 0
0.1875 0.59375 0
0.15625 0.625 0
0.1875 0.625 0
0.1875 0.5625 0
0.21875 0.5625 0
0.1875 0.59375 0
0.21875 0.59375 0
0.21875 0.5625 0
0.25 0.5625 0
0.21875 0.59375 0
0.25 0.59375 0
0.1875 0.59375 0
0.21875 0.59375 0
0.1875 0.625 0
0.21875 0.625 0
0.21875 0.59375 0
0.25 0.59375 0
0.21875 0.625 0
0.25 0.625 0
0 0.625 0
0.03125 0.625 0
0 0.65625 0
0.03125 0.65625 0
0.03125 0.625 0
0.0625 0.625 0
0.03125 0.65625 0
0.0625 0.65625 0
0 0.65625 0
0.03125 0.65625 0
0 0.6875 0
0.03125 0.6875 0
0.03125 0.65625 0
0.0625 0.65625 0
0.03125 0.6875 0
0.0625 0.6875 0
0.0625 0.625 0
0.09375 0.625 0
0.0625 0.65625 0
0.09375 0.65625 0
0.09375 0.625 0
0.125 0.625 0
0.09375 0.65625 0
0.125 0.65625 0
0.0625 0.65625 0
0.09375 0.65625 0
0.0625 0.6875 0
0.09375 0.6875 0
0.09375 0.65625 0
0.125 0.65625 0
0.09375 0.6875 0
0.125 0.6875 0
0 0.6875 0
0.03125 0.6875 0
0 0.71875 0
0.03125 0.71875 0
0.03125 0.6875 0
0.0625 0.6875 0
0.03125 0.71875 0
0.0625 0.71875 0
0 0.71875 0
0.03125 0.71875 0
0 0.75 0
0.03125 0.75 0
0.03125 0.71875 0
0.0625 0.71875 0
0.03125 0.75 0
0.0625 0.75 0
0.0625 0.6875 0
0.09375 0.6875 0
0.0625 0.71875 0
0.09375 0.71875 0
0.09375 0.6875 0
0.125 0.6875 0
0.09375 0.71875 0
0.125 0.71875 0
0.0625 0.71875 0
0.09375 0.71875 0
0.0625 0.75 0
0.09375 0.75 0
0.09375 0.71875 0
0.125 0.71875 0
0.09375 0.75 0
0.125 0.75 0
0.125 0.625 0
0.15625 0.625 0
0.125 0.65625 0
0.15625 0.65625 0
0.15625 0.625 0
0.1875 0.625 0
0.15625 0.65625 0
0.1875 0.65625 0
0.125 0.65625 0
0.15625 0.65625 0
0.125 0.6875 0
0.15625 0.6875 0
0.15625 0.65625 0
0.1875 0.65625 0
0.15625 0.6875 0
0.1875 0.6875 0
0.1875 0.625 0
0.21875 0.625 0
0.1875 0.65625 0
0.21875 0.65625 0
0.21875 0.625 0
0.25 0.625 0
0.21875 0.65625 0
0.25 0.65625 0
0.1875 0.65625 0
0.21875 0.65625 0
0.1875 0.6875 0
0.21875 0.6875 0
0.21875 0.65625 0
0.25 0.65625 0
0.21875 0.6875 0
0.25 0.6875 0
0.125 0.6875 0
0.15625 0.6875 0
0.125 0.71875 0
0.15625 0.71875 0
0.15625 0.6875 0
0.1875 0.6875 0
0.15625 0.71875 0
0.1875 0.71875 0
0.125 0.71875 0
0.15625 0.71875 0
0.125 0.75 0
0.15625 0.75 0
0.15625 0.71875 0
0.1875 0.71875 0
0.15625 0.75 0
0.1875 0.75 0
0.1875 0.6875 0
0.21875 0.6875 0
0.1875 0.71875 0
0.21875 0.71875 0
0.21875 0.6875 0
0.25 0.6875 0
0.21875 0.71875 0
0.25 0.71875 0
0.1875 0.71875 0
0.21875 0.71875 0
0.1875 0.75 0
0.21875 0.75 0
0.21875 0.71875 0
0.25 0.71875 0
0.21875 0.75 0
0.25 0.75 0
0.25 0.5 0
0.28125 0.5 0
0.25 0.53125 0
0.28125 0.53125 0
0.28125 0.5 0
0.3125 0.5 0
0.28125 0.53125 0
0.3125 0.53125 0
0.25 0.53125 0
0.28125 0.53125 0
0.25 0.5625 0
0.28125 0.5625 0
0.28125 0.53125 0
0.3125 0.53125 0
0.28125 0.5625 0
0.3125 0.5625 0
0.3125 0.5 0
0.34375 0.5 0
0.3125 0.53125 0
0.34375 0.53125 0
0.34375 0.5 0
0.375 0.5 0
0.34375 0.53125 0
0.375 0.53125 0
0.3125 0.53125 0
0.34375 0.53125 0
0.3125 0.5625 0
0.34375 0.5625 0
0.34375 0.53125 0
0.375 0.53125 0
0.34375 0.5625 0
0.375 0.5625 0
0.25 0.5625 0
0.28125 0.5625 0
0.25 0.59375 0
0.28125 0.59375 0
0.28125 0.5625 0
0.3125 0.5625 0
0.28125 0.59375 0
0.3125 0.59375 0
0.25 0.59375 0
0.28125 0.59375 0
0.25 0.625 0
0.28125 0.625 0
0.28125 0.59375 0
0.3125 0.59375 0
0.28125 0.625 0
0.3125 0.625 0
0.3125 0.5625 0
0.34375 0.5625 0
0.3125 0.59375 0
0.34375 0.59375 0
0.34375 0.5625 0
0.375 0.5625 0
0.34375 0.59375 0
0.375 0.59375 0
0.3125 0.59375 0
0.34375 0.59375 0
0.3125 0.625 0
0.34375 0.625 0
0.34375 0.59375 0
0.375 0.59375 0
0.34375 0.625 0
0.375 0.625 0
0.375 0.5 0
0.40625 0.5 0
0.375 0.53125 0
0.40625 0.53125 0
0.40625 0.5 0
0.4375 0.5 0
0.40625 0.53125 0
0.4375 0.53125 0
0.375 0.53125 0
0.40625 0.53125 0
0.375 0.5625 0
0.40625 0.5625 0
0.40625 0.53125 0
0.4375 0.53125 0
0.40625 0.5625 0
0.4375 0.5625 0
0.4375 0.5 0
0.46875 0.5 0
0.4375 0.53125 0
0.46875 0.53125 0
0.46875 0.5 0
0.5 0.5 0
0.46875 0.53125 0
0.5 0.53125 0
0.4375 0.53125 0
0.46875 0.53125 0
0.4375 0.5625 0
0.46875 0.5625 0
0.46875 0.53125 0
0.5 0.53125 0
0.46875 0.5625 0
0.5 0.5625 0
0.375 0.5625 0
0.40625 0.5625 0
0.375 0.59375 0
0.40625 0.59375 0
0.40625 0.5625 0
0.4375 0.5625 0
0.40625 0.59375 0
0.4375 0.59375 0
0.375 0.59375 0
0.40625 0.59375 0
0.375 0.625 0
0.40625 0.625 0
0.40625 0.59375 0
0.4375 0.59375 0
0.40625 0.625 0
0.4375 0.625 0
0.4375 0.5625 0
0.46875 0.5625 0
0.4375 0.59375 0
0.46875 0.59375 0
0.46875 0.5625 0
0.5 0.5625 0
0.46875 0.59375 0
0.5 0.59375 0
0.4375 0.59375 0
0.46875 0.59375 0
0.4375 0.625 0
0.46875 0.625 0
0.46875 0.59375 0
0.5 0.59375 0
0.46875 0.625 0
0.5 0.625 0
0.25 0.625 0
0.28125 0.625 0
0.25 0.65625 0
0.28125 0.65625 0
0.28125 0.625 0
0.3125 0.625 0
0.28125 0.65625 0
0.3125 0.65625 0
0.25 0.65625 0
0.28125 0.65625 0
0.25 0.6875 0
0.28125 0.6875 0
0.28125 0.65625 0
0.3125 0.65625 0
0.28125 0.6875 0
0.3125 0.6875 0
0.3125 0.625 0
0.34375 0.625 0
0.3125 0.65625 0
0.34375 0.65625 0
0.34375 0.625 0
0.375 0.625 0
0.34375 0.65625 0
0.375 0.65625 0
0.3125 0.65625 0
0.34375 0.65625 0
0.3125 0.6875 0
0.34375 0.6875 0
0.34375 0.65625 0
0.375 0.65625 0
0.34375 0.6875 0
0.375 0.6875 0
0.25 0.6875 0
0.28125 0.6875 0
0.25 0.71875 0
0.28125 0.71875 0
0.28125 0.6875 0
0.3125 0.6875 0
0.28125 0.71875 0
0.3125 0.71875 0
0.25 0.71875 0
0.28125 0.71875 0
0.25 0.75 0
0.28125 0.75 0
0.28125 0.71875 0
0.3125 0.71875 0
0.28125 0.75 0
0.3125 0.75 0
0.3125 0.6875 0
0.34375 0.6875 0
0.3125 0.71875 0
0.34375 0.71875 0
0.34375 0.6875 0
0.375 0.6875 0
0.34375 0.71875 0
0.375 0.71875 0
0.3125 0.71875 0
0.34375 0.71875 0
0.3125 0.75 0
0.34375 0.75 0
0.34375 0.71875 0
0.375 0.71875 0
0.34375 0.75 0
0.375 0.75 0
0.375 0.625 0
0.40625 0.625 0
0.375 0.65625 0
0.40625 0.65625 0
0.40625 0.625 0
0.4375 0.625 0
0.40625 0.65625 0
0.4375 0.65625 0
0.375 0.65625 0
0.40625 0.65625 0
0.375 0.6875 0
0.40625 0.6875 0
0.40625 0.65625 0
0.4375 0.65625 0
0.40625 0.6875 0
0.4375 0.6875 0
0.4375 0.625 0
0.46875 0.625 0
0.4375 0.65625 0
0.46875 0.65625 0
0.46875 0.625 0
0.5 0.625 0
0.46875 0.65625 0
0.5 0.65625 0
0.4375 0.65625 0
0.46875 0.65625 0
0.4375 0.6875 0
0.46875 0.6875 0
0.46875 0.65625 0
0.5 0.65625 0
0.46875 0.6875 0
0.5 0.6875 0
0.375 0.6875 0
0.40625 0.6875 0
0.375 0.71875 0
0.40625 0.71875 0
0.40625 0.6875 0
0.4375 0.6875 0
0.40625 0.71875 0
0.4375 0.71875 0
0.375 0.71875 0
0.40625 0.71875 0
0.375 0.75 0
0.40625 0.75 0
0.40625 0.71875 0
0.4375 0.71875 0
0.40625 0.75 0
0.4375 0.75 0
0.4375 0.6875 0
0.46875 0.6875 0
0.4375 0.71875 0
0.46875 0.71875 0
0.46875 0.6875 0
0.5 0.6875 0
0.46875 0.71875 0
0.5 0.71875 0
0.4375 0.71875 0
0.46875 0.71875 0
0.4375 0.75 0
0.46875 0.75 0
0.46875 0.71875 0
0.5 0.71875 0
0.46875 0.75 0
0.5 0.75 0
0 0.75 0
0.03125 0.75 0
0 0.78125 0
0.03125 0.78125 0
0.03125 0.75 0
0.0625 0.75 0
0.03125 0.78125 0
0.0625 0.78125 0
0 0.78125 0
0.03125 0.78125 0
0 0.8125 0
0.03125 0.8125 0
0.03125 0.78125 0
0.0625 0.78125 0
0.03125 0.8125 0
0.0625 0.8125 0
0.0625 0.75 0
0.09375 0.75 0
0.0625 0.78125 0
0.09375 0.78125 0
0.09375 0.75 0
0.125 0.75 0
0.09375 0.78125 0
0.125 0.78125 0
0.0625 0.78125 0
0.09375 0.78125 0
0.0625 0.8125 0
0.09375 0.8125 0
0.09375 0.78125 0
0.125 0.78125 0
0.09375 0.8125 0
0.125 0.8125 0
0 0.8125 0
0.03125 0.8125 0
0 0.84375 0
0.03125 0.84375 0
0.03125 0.8125 0
0.0625 0.8125 0
0.03125 0.84375 0
0.0625 0.84375 0
0 0.84375 0
0.03125 0.84375 0
0 0.875 0
0.03125 0.875 0
0.03125 0.84375 0
0.0625 0.84375 0
0.03125 0.875 0
0.0625 0.875 0
0.0625 0.8125 0
0.09375 0.8125 0
0.0625 0.84375 0
0.09375 0.84375 0
0.09375 0.8125 0
0.125 0.8125 0
0.09375 0.84375 0
0.125 0.84375 0
0.0625 0.84375 0
0.09375 0.84375 0
0.0625 0.875 0
0.09375 0.875 0
0.09375 0.84375 0
0.125 0.84375 0
0.09375 0.875 0
0.125 0.875 0
0.125 0.75 0
0.15625 0.75 0
0.125 0.78125 0
0.15625 0.78125 0
0.15625 0.75 0
0.1875 0.75 0
0.15625 0.78125 0
0.1875 0.78125 0
0.125 0.78125 0
0.15625 0.78125 0
0.125 0.8125 0
0.15625 0.8125 0
0.15625 0.78125 0
0.1875 0.78125 0
0.15625 0.8125 0
0.1875 0.8125 0
0.1875 0.75 0
0.21875 0.75 0
0.1875 0.78125 0
0.21875 0.78125 0
0.21875 0.75 0
0.25 0.75 0
0.21875 0.78125 0
0.25 0.78125 0
0.1875 0.78125 0
0.21875 0.78125 0
0.1875 0.8125 0
0.21875 0.8125 0
0.21875 0.78125 0
0.25 0.78125 0
0.21875 0.8125 0
0.25 0.8125 0
0.125 0.8125 0
0.15625 0.8125 0
0.125 0.84375 0
0.15625 0.84375 0
0.15625 0.8125 0
[...]
POINT_DATA 4096
SCALARS State_InstatPDEProblemContainer_0 double 1
LOOKUP_TABLE default
-0.000952719 -0.000952593 -0.00101933 -0.00101928 -0.000952593 -0.000952467 -0.00101928 -0.00101938 -0.00101933 -0.00101928 -0.00108564 -0.00108567 -0.00101928 -0.00101938 -0.00108567 -0.00108598 -0.000952467 -0.000952339 -0.00101938 -0.00101963 -0.000952339 -0.000952206 -0.00101963 -0.00102006 -0.00101938 -0.00101963 -0.00108598 -0.0010866 -0.00101963 -0.00102006 -0.0010866 -0.00108754 -0.00108564 -0.00108567 -0.0011514 -0.00115149 -0.00108567 -0.00108598 -0.00115149 -0.00115199 -0.0011514 -0.00115149 -0.00121636 -0.0012165 -0.00115149 -0.00115199 -0.0012165 -0.00121715 -0.00108598 -0.0010866 -0.00115199 -0.00115292 -0.0010866 -0.00108754 -0.00115292 -0.00115431 -0.00115199 -0.00115292 -0.00121715 -0.00121832 -0.00115292 -0.00115431 -0.00121832 -0.00122006 -0.000952206 -0.000952066 -0.00102006 -0.00102068 -0.000952066 -0.000951919 -0.00102068 -0.00102152 -0.00102006 -0.00102068 -0.00108754 -0.00108886 -0.00102068 -0.00102152 -0.00108886 -0.00109062 -0.000951919 -0.00095176 -0.00102152 -0.00102264 -0.00095176 -0.000951589 -0.00102264 -0.00102411 -0.00102152 -0.00102264 -0.00109062 -0.00109289 -0.00102264 -0.00102411 -0.00109289 -0.00109582 -0.00108754 -0.00108886 -0.00115431 -0.00115622 -0.00108886 -0.00109062 -0.00115622 -0.00115873 -0.00115431 -0.00115622 -0.00122006 -0.00122242 -0.00115622 -0.00115873 -0.00122242 -0.00122548 -0.00109062 -0.00109289 -0.00115873 -0.00116194 -0.00109289 -0.00109582 -0.00116194 -0.00116601 -0.00115873 -0.00116194 -0.00122548 -0.00122934 -0.00116194 -0.00116601 -0.00122934 -0.00123414 -0.00121636 -0.0012165 -0.00128031 -0.00128049 -0.0012165 -0.00121715 -0.00128049 -0.00128125 -0.00128031 -0.00128049 -0.0013431 -0.0013433 -0.00128049 -0.00128125 -0.0013433 -0.00134412 -0.00121715 -0.00121832 -0.00128125 -0.00128259 -0.00121832 -0.00122006 -0.00128259 -0.00128456 -0.00128125 -0.00128259 -0.00134412 -0.00134556 -0.00128259 -0.00128456 -0.00134556 -0.00134765 -0.0013431 -0.0013433 -0.0014046 -0.00140482 -0.0013433 -0.00134412 -0.00140482 -0.00140565 -0.0014046 -0.00140482 -0.00146474 -0.00146496 -0.00140482 -0.00140565 -0.00146496 -0.00146578 -0.00134412 -0.00134556 -0.00140565 -0.00140711 -0.00134556 -0.00134765 -0.00140711 -0.00140922 -0.00140565 -0.00140711 -0.00146578 -0.0014672 -0.00140711 -0.00140922 -0.0014672 -0.00146924 -0.00122006 -0.00122242 -0.00128456 -0.00128721 -0.00122242 -0.00122548 -0.00128721 -0.0012906 -0.00128456 -0.00128721 -0.00134765 -0.00135042 -0.00128721 -0.0012906 -0.00135042 -0.00135394 -0.00122548 -0.00122934 -0.0012906 -0.00129482 -0.00122934 -0.00123414 -0.00129482 -0.00129997 -0.0012906 -0.00129482 -0.00135394 -0.00135825 -0.00129482 -0.00129997 -0.00135825 -0.00136342 -0.00134765 -0.00135042 -0.00140922 -0.00141199 -0.00135042 -0.00135394 -0.00141199 -0.00141546 -0.00140922 -0.00141199 -0.00146924 -0.0014719 -0.00141199 -0.00141546 -0.0014719 -0.00147519 -0.00135394 -0.00135825 -0.00141546 -0.00141966 -0.00135825 -0.00136342 -0.00141966 -0.00142459 -0.00141546 -0.00141966 -0.00147519 -0.0014791 -0.00141966 -0.00142459 -0.0014791 -0.00148363 -0.000951589 -0.0009514 -0.00102411 -0.00102604 -0.0009514 -0.000951188 -0.00102604 -0.00102859 -0.00102411 -0.00102604 -0.00109582 -0.00109959 -0.00102604 -0.00102859 -0.00109959 -0.00110448 -0.000951188 -0.000950943 -0.00102859 -0.00103205 -0.000950943 -0.000950652 -0.00103205 -0.0010369 -0.00102859 -0.00103205 -0.00110448 -0.00111092 -0.00103205 -0.0010369 -0.00111092 -0.00111956 -0.00109582 -0.00109959 -0.00116601 -0.00117114 -0.00109959 -0.00110448 -0.00117114 -0.00117762 -0.00116601 -0.00117114 -0.00123414 -0.00124007 -0.00117114 -0.00117762 -0.00124007 -0.00124735 -0.00110448 -0.00111092 -0.00117762 -0.00118585 -0.00111092 -0.00111956 -0.00118585 -0.00119637 -0.00117762 -0.00118585 -0.00124735 -0.00125624 -0.00118585 -0.00119637 -0.00125624 -0.00126698 -0.000950652 -0.000950282 -0.0010369 -0.00104403 -0.000950282 -0.000949763 -0.00104403 -0.00105538 -0.0010369 -0.00104403 -0.00111956 -0.0011315 -0.00104403 -0.00105538 -0.0011315 -0.00114834 -0.000949763 -0.000948817 -0.00105538 -0.00107536 -0.000948817 -0.000947527 -0.00107536 -0.00111887 -0.00105538 -0.00107536 -0.00114834 -0.00117252 -0.00107536 -0.00111887 -0.00117252 -0.001198 -0.00111956 -0.0011315 -0.00119637 -0.00120976 -0.0011315 -0.00114834 -0.00120976 -0.00122654 -0.00119637 -0.00120976 -0.00126698 -0.00127969 -0.00120976 -0.00122654 -0.00127969 -0.00129398 -0.00114834 -0.00117252 -0.00122654 -0.00124545 -0.00117252 -0.001198 -0.00124545 -0.00126485 -0.00122654 -0.00124545 -0.00129398 -0.00130898 -0.00124545 -0.00126485 -0.00130898 -0.0013234 -0.00123414 -0.00124007 -0.00129997 -0.00130618 -0.00124007 -0.00124735 -0.00130618 -0.00131358 -0.00129997 -0.00130618 -0.00136342 -0.00136951 -0.00130618 -0.00131358 -0.00136951 -0.00137654 -0.00124735 -0.00125624 -0.00131358 -0.00132226 -0.00125624 -0.00126698 -0.00132226 -0.00133224 -0.00131358 -0.00132226 -0.00137654 -0.00138451 -0.00132226 -0.00133224 -0.00138451 -0.00139329 -0.00136342 -0.00136951 -0.00142459 -0.00143026 -0.00136951 -0.00137654 -0.00143026 -0.00143665 -0.00142459 -0.00143026 -0.00148363 -0.00148873 -0.00143026 -0.00143665 -0.00148873 -0.00149433 -0.00137654 -0.00138451 -0.00143665 -0.00144366 -0.00138451 -0.00139329 -0.00144366 -0.00145112 -0.00143665 -0.00144366 -0.00149433 -0.0015003 -0.00144366 -0.00145112 -0.0015003 -0.00150648 -0.00126698 -0.00127969 -0.00133224 -0.00134334 -0.00127969 -0.00129398 -0.00134334 -0.00135511 -0.00133224 -0.00134334 -0.00139329 -0.00140262 -0.00134334 -0.00135511 -0.00140262 -0.00141209 -0.00129398 -0.00130898 -0.00135511 -0.00136681 -0.00130898 -0.0013234 -0.00136681 -0.00137783 -0.00135511 -0.00136681 -0.00141209 -0.00142122 -0.00136681 -0.00137783 -0.00142122 -0.00142963 -0.00139329 -0.00140262 -0.00145112 -0.00145877 -0.00140262 -0.00141209 -0.00145877 -0.00146628 -0.00145112 -0.00145877 -0.00150648 -0.00151263 -0.00145877 -0.00146628 -0.00151263 -0.00151851 -0.00141209 -0.00142122 -0.00146628 -0.00147334 -0.00142122 -0.00142963 -0.00147334 -0.00147973 -0.00146628 -0.00147334 -0.00151851 -0.0015239 -0.00147334 -0.00147973 -0.0015239 -0.00152867 -0.00146474 -0.00146496 -0.0015235 -0.00152371 -0.00146496 -0.00146578 -0.00152371 -0.00152448 -0.0015235 -0.00152371 -0.00158088 -0.00158107 -0.00152371 -0.00152448 -0.00158107 -0.00158177 -0.00146578 -0.0014672 -0.00152448 -0.00152582 -0.0014672 -0.00146924 -0.00152582 -0.00152772 -0.00152448 -0.00152582 -0.00158177 -0.00158298 -0.00152582 -0.00152772 -0.00158298 -0.0015847 -0.00158088 -0.00158107 -0.00163692 -0.00163708 -0.00158107 -0.00158177 -0.00163708 -0.0016377 -0.00163692 -0.00163708 -0.00169168 -0.00169181 -0.00163708 -0.0016377 -0.00169181 -0.00169232 -0.00158177 -0.00158298 -0.0016377 -0.00163876 -0.00158298 -0.0015847 -0.00163876 -0.00164025 -0.0016377 -0.00163876 -0.00169232 -0.00169321 -0.00163876 -0.00164025 -0.00169321 -0.00169445 -0.00146924 -0.0014719 -0.00152772 -0.00153018 -0.0014719 -0.00147519 -0.00153018 -0.00153319 -0.00152772 -0.00153018 -0.0015847 -0.0015869 -0.00153018 -0.00153319 -0.0015869 -0.00158957 -0.00147519 -0.0014791 -0.00153319 -0.00153672 -0.0014791 -0.00148363 -0.00153672 -0.00154074 -0.00153319 -0.00153672 -0.00158957 -0.00159266 -0.00153672 -0.00154074 -0.00159266 -0.00159612 -0.0015847 -0.0015869 -0.00164025 -0.00164215 -0.0015869 -0.00158957 -0.00164215 -0.00164444 -0.00164025 -0.00164215 -0.00169445 -0.00169603 -0.00164215 -0.00164444 -0.00169603 -0.00169791 -0.00158957 -0.00159266 -0.00164444 -0.00164706 -0.00159266 -0.00159612 -0.00164706 -0.00164995 -0.00164444 -0.00164706 -0.00169791 -0.00170005 -0.00164706 -0.00164995 -0.00170005 -0.00170238 -0.00169168 -0.00169181 -0.00174525 -0.00174535 -0.00169181 -0.00169232 -0.00174535 -0.00174575 -0.00174525 -0.00174535 -0.00179775 -0.0017978 -0.00174535 -0.00174575 -0.0017978 -0.00179807 -0.00169232 -0.00169321 -0.00174575 -0.00174644 -0.00169321 -0.00169445 -0.00174644 -0.00174741 -0.00174575 -0.00174644 -0.00179807 -0.00179856 -0.00174644 -0.00174741 -0.00179856 -0.00179924 -0.00179775 -0.0017978 -0.00184929 -0.0018493 -0.0017978 -0.00179807 -0.0018493 -0.00184944 -0.00184929 -0.0018493 -0.0019 -0.0019 -0.0018493 -0.00184944 -0.0019 -0.0019 -0.00179807 -0.00179856 -0.00184944 -0.00184969 -0.00179856 -0.00179924 -0.00184969 -0.00185005 -0.00184944 -0.00184969 -0.0019 -0.0019 -0.00184969 -0.00185005 -0.0019 -0.0019 -0.00169445 -0.00169603 -0.00174741 -0.00174865 -0.00169603 -0.00169791 -0.00174865 -0.0017501 -0.00174741 -0.00174865 -0.00179924 -0.0018001 -0.00174865 -0.0017501 -0.0018001 -0.00180111 -0.00169791 -0.00170005 -0.0017501 -0.00175174 -0.00170005 -0.00170238 -0.00175174 -0.00175351 -0.0017501 -0.00175174 -0.00180111 -0.00180225 -0.00175174 -0.00175351 -0.00180225 -0.00180346 -0.00179924 -0.0018001 -0.00185005 -0.00185051 -0.0018001 -0.00180111 -0.00185051 -0.00185105 -0.00185005 -0.00185051 -0.0019 -0.0019 -0.00185051 -0.00185105 -0.0019 -0.0019 -0.00180111 -0.00180225 -0.00185105 -0.00185164 -0.00180225 -0.00180346 -0.00185164 -0.00185227 -0.00185105 -0.00185164 -0.0019 -0.0019 -0.00185164 -0.00185227 -0.0019 -0.0019 -0.00148363 -0.00148873 -0.00154074 -0.00154518 -0.00148873 -0.00149433 -0.00154518 -0.00154995 -0.00154074 -0.00154518 -0.00159612 -0.00159989 -0.00154518 -0.00154995 -0.00159989 -0.00160384 -0.00149433 -0.0015003 -0.00154995 -0.00155492 -0.0015003 -0.00150648 -0.00155492 -0.00155992 -0.00154995 -0.00155492 -0.00160384 -0.00160787 -0.00155492 -0.00155992 -0.00160787 -0.00161183 -0.00159612 -0.00159989 -0.00164995 -0.00165304 -0.00159989 -0.00160384 -0.00165304 -0.00165624 -0.00164995 -0.00165304 -0.00170238 -0.00170483 -0.00165304 -0.00165624 -0.00170483 -0.00170731 -0.00160384 -0.00160787 -0.00165624 -0.00165942 -0.00160787 -0.00161183 -0.00165942 -0.00166247 -0.00165624 -0.00165942 -0.00170731 -0.00170974 -0.00165942 -0.00166247 -0.00170974 -0.001712 -0.00150648 -0.00151263 -0.00155992 -0.00156477 -0.00151263 -0.00151851 -0.00156477 -0.00156929 -0.00155992 -0.00156477 -0.00161183 -0.00161557 -0.00156477 -0.00156929 -0.00161557 -0.00161895 -0.00151851 -0.0015239 -0.00156929 -0.00157332 -0.0015239 -0.00152867 -0.00157332 -0.00157679 -0.00156929 -0.00157332 -0.00161895 -0.00162188 -0.00157332 -0.00157679 -0.00162188 -0.0016243 -0.00161183 -0.00161557 -0.00166247 -0.00166527 -0.00161557 -0.00161895 -0.00166527 -0.00166772 -0.00166247 -0.00166527 -0.001712 -0.00171402 -0.00166527 -0.00166772 -0.00171402 -0.00171571 -0.00161895 -0.00162188 -0.00166772 -0.00166975 -0.00162188 -0.0016243 -0.00166975 -0.00167134 -0.00166772 -0.00166975 -0.00171571 -0.00171703 -0.00166975 -0.00167134 -0.00171703 -0.00171796 -0.00170238 -0.00170483 -0.00175351 -0.00175535 -0.00170483 -0.00170731 -0.00175535 -0.00175719 -0.00175351 -0.00175535 -0.00180346 -0.0018047 -0.00175535 -0.00175719 -0.0018047 -0.00180592 -0.00170731 -0.00170974 -0.00175719 -0.00175894 -0.00170974 -0.001712 -0.00175894 -0.00176053 -0.00175719 -0.00175894 -0.00180592 -0.00180706 -0.00175894 -0.00176053 -0.00180706 -0.00180807 -0.00180346 -0.0018047 -0.00185227 -0.00185292 -0.0018047 -0.00180592 -0.00185292 -0.00185354 -0.00185227 -0.00185292 -0.0019 -0.0019 -0.00185292 -0.00185354 -0.0019 -0.0019 -0.00180592 -0.00180706 -0.00185354 -0.00185411 -0.00180706 -0.00180807 -0.00185411 -0.0018546 -0.00185354 -0.00185411 -0.0019 -0.0019 -0.00185411 -0.0018546 -0.0019 -0.0019 -0.001712 -0.00171402 -0.00176053 -0.00176189 -0.00171402 -0.00171571 -0.00176189 -0.00176298 -0.00176053 -0.00176189 -0.00180807 -0.0018089 -0.00176189 -0.00176298 -0.0018089 -0.00180951 -0.00171571 -0.00171703 -0.00176298 -0.00176374 -0.00171703 -0.00171796 -0.00176374 -0.0017642 -0.00176298 -0.00176374 -0.00180951 -0.00180988 -0.00176374 -0.0017642 -0.00180988 -0.00181001 -0.00180807 -0.0018089 -0.0018546 -0.00185498 -0.0018089 -0.00180951 -0.00185498 -0.00185523 -0.0018546 -0.00185498 -0.0019 -0.0019 -0.00185498 -0.00185523 -0.0019 -0.0019 -0.00180951 -0.00180988 -0.00185523 -0.00185535 -0.00180988 -0.00181001 -0.00185535 -0.00185532 -0.00185523 -0.00185535 -0.0019 -0.0019 -0.00185535 -0.00185532 -0.0019 -0.0019 -0.000947527 -0.00109228 -0.00111887 -0.00115389 -0.00109228 -0.00117821 -0.00115389 -0.0012021 -0.00111887 -0.00115389 -0.001198 -0.00122452 -0.00115389 -0.0012021 -0.00122452 -0.00125005 -0.00117821 -0.0012366 -0.0012021 -0.00124753 -0.0012366 -0.0012808 -0.00124753 -0.00128636 -0.0012021 -0.00124753 -0.00125005 -0.00127927 -0.00124753 -0.00128636 -0.00127927 -0.00130834 -0.001198 -0.00122452 -0.00126485 -0.00128278 -0.00122452 -0.00125005 -0.00128278 -0.00130083 -0.00126485 -0.00128278 -0.0013234 -0.00133684 -0.00128278 -0.00130083 -0.00133684 -0.00134981 -0.00125005 -0.00127927 -0.00130083 -0.00131998 -0.00127927 -0.00130834 -0.00131998 -0.00134046 -0.00130083 -0.00131998 -0.00134981 -0.00136336 -0.00131998 -0.00134046 -0.00136336 -0.0013778 -0.0012808 -0.00131601 -0.00128636 -0.00131903 -0.00131601 -0.00134482 -0.00131903 -0.00134652 -0.00128636 -0.00131903 -0.00130834 -0.00133511 -0.00131903 -0.00134652 -0.00133511 -0.00135893 -0.00134482 -0.00136868 -0.00134652 -0.0013697 -0.00136868 -0.00138855 -0.0013697 -0.00138923 -0.00134652 -0.0013697 -0.00135893 -0.00137972 -0.0013697 -0.00138923 -0.00137972 -0.00139765 -0.00130834 -0.00133511 -0.00134046 -0.00136082 -0.00133511 -0.00135893 -0.00136082 -0.00138001 -0.00134046 -0.00136082 -0.0013778 -0.00139276 -0.00136082 -0.00138001 -0.00139276 -0.00140752 -0.00135893 -0.00137972 -0.00138001 -0.0013975 -0.00137972 -0.00139765 -0.0013975 -0.00141304 -0.00138001 -0.0013975 -0.00140752 -0.00142152 -0.0013975 -0.00141304 -0.00142152 -0.00143436 -0.0013234 -0.00133684 -0.00137783 -0.00138795 -0.00133684 -0.00134981 -0.00138795 -0.00139758 -0.00137783 -0.00138795 -0.00142963 -0.00143728 -0.00138795 -0.00139758 -0.00143728 -0.00144444 -0.00134981 -0.00136336 -0.00139758 -0.00140736 -0.00136336 -0.0013778 -0.00140736 -0.00141769 -0.00139758 -0.00140736 -0.00144444 -0.00145154 -0.00140736 -0.00141769 -0.00145154 -0.00145892 -0.00142963 -0.00143728 -0.00147973 -0.00148546 -0.00143728 -0.00144444 -0.00148546 -0.00149071 -0.00147973 -0.00148546 -0.00152867 -0.00153286 -0.00148546 -0.00149071 -0.00153286 -0.0015366 -0.00144444 -0.00145154 -0.00149071 -0.00149579 -0.00145154 -0.00145892 -0.00149579 -0.00150098 -0.00149071 -0.00149579 -0.0015366 -0.00154013 -0.00149579 -0.00150098 -0.00154013 -0.00154366 -0.0013778 -0.00139276 -0.00141769 -0.00142853 -0.00139276 -0.00140752 -0.00142853 -0.00143954 -0.00141769 -0.00142853 -0.00145892 -0.00146668 -0.00142853 -0.00143954 -0.00146668 -0.00147471 -0.00140752 -0.00142152 -0.00143954 -0.00145033 -0.00142152 -0.00143436 -0.00145033 -0.00146051 -0.00143954 -0.00145033 -0.00147471 -0.00148275 -0.00145033 -0.00146051 -0.00148275 -0.00149054 -0.00145892 -0.00146668 -0.00150098 -0.00150643 -0.00146668 -0.00147471 -0.00150643 -0.00151211 -0.00150098 -0.00150643 -0.00154366 -0.00154734 -0.00150643 -0.00151211 -0.00154734 -0.00155121 -0.00147471 -0.00148275 -0.00151211 -0.00151792 -0.00148275 -0.00149054 -0.00151792 -0.00152365 -0.00151211 -0.00151792 -0.00155121 -0.00155521 -0.00151792 -0.00152365 -0.00155521 -0.00155926 -0.00138855 -0.00140505 -0.00138923 -0.00140559 -0.00140505 -0.00141865 -0.00140559 -0.00141916 -0.00138923 -0.00140559 -0.00139765 -0.00141294 -0.00140559 -0.00141916 -0.00141294 -0.00142577 -0.00141865 -0.00142968 -0.00141916 -0.00143023 -0.00142968 -0.00143841 -0.00143023 -0.00143903 -0.00141916 -0.00143023 -0.00142577 -0.00143634 -0.00143023 -0.00143903 -0.00143634 -0.00144479 -0.00139765 -0.00141294 -0.00141304 -0.00142659 -0.00141294 -0.00142577 -0.00142659 -0.00143815 -0.00141304 -0.00142659 -0.00143436 -0.00144582 -0.00142659 -0.00143815 -0.00144582 -0.0014558 -0.00142577 -0.00143634 -0.00143815 -0.0014478 -0.00143634 -0.00144479 -0.0014478 -0.00145558 -0.00143815 -0.0014478 -0.0014558 -0.00146423 -0.0014478 -0.00145558 -0.00146423 -0.00147112 -0.00143841 -0.00144502 -0.00143903 -0.00144571 -0.00144502 -0.00144965 -0.00144571 -0.0014504 -0.00143903 -0.00144571 -0.00144479 -0.00145125 -0.00144571 -0.0014504 -0.00145125 -0.00145579 -0.00144965 -0.00145239 -0.0014504 -0.00145318 -0.00145239 -0.00145329 -0.00145318 -0.0014541 -0.0014504 -0.00145318 -0.00145579 -0.0014585 -0.00145318 -0.0014541 -0.0014585 -0.00145939 -0.00144479 -0.00145125 -0.00145558 -0.00146156 -0.00145125 -0.00145579 -0.00146156 -0.0014658 -0.00145558 -0.00146156 -0.00147112 -0.00147645 -0.00146156 -0.0014658 -0.00147645 -0.00148025 -0.00145579 -0.0014585 -0.0014658 -0.00146832 -0.0014585 -0.00145939 -0.00146832 -0.00146916 -0.0014658 -0.00146832 -0.00148025 -0.00148252 -0.00146832 -0.00146916 -0.00148252 -0.00148328 -0.00143436 -0.00144582 -0.00146051 -0.00146982 -0.00144582 -0.0014558 -0.00146982 -0.00147809 -0.00146051 -0.00146982 -0.00149054 -0.00149782 -0.00146982 -0.00147809 -0.00149782 -0.00150441 -0.0014558 -0.00146423 -0.00147809 -0.00148519 -0.00146423 -0.00147112 -0.00148519 -0.00149105 -0.00147809 -0.00148519 -0.00150441 -0.00151016 -0.00148519 -0.00149105 -0.00151016 -0.00151497 -0.00149054 -0.00149782 -0.00152365 -0.00152913 -0.00149782 -0.00150441 -0.00152913 -0.00153418 -0.00152365 -0.00152913 -0.00155926 -0.0015632 -0.00152913 -0.00153418 -0.0015632 -0.00156691 -0.00150441 -0.00151016 -0.00153418 -0.00153866 -0.00151016 -0.00151497 -0.00153866 -0.00154246 -0.00153418 -0.00153866 -0.00156691 -0.00157025 -0.00153866 -0.00154246 -0.00157025 -0.00157312 -0.00147112 -0.00147645 -0.00149105 -0.00149563 -0.00147645 -0.00148025 -0.00149563 -0.00149892 -0.00149105 -0.00149563 -0.00151497 -0.00151876 -0.00149563 -0.00149892 -0.00151876 -0.0015215 -0.00148025 -0.00148252 -0.00149892 -0.00150089 -0.00148252 -0.00148328 -0.00150089 -0.00150154 -0.00149892 -0.00150089 -0.0015215 -0.00152315 -0.00150089 -0.00150154 -0.00152315 -0.0015237 -0.00151497 -0.00151876 -0.00154246 -0.00154548 -0.00151876 -0.0015215 -0.00154548 -0.00154768 -0.00154246 -0.00154548 -0.00157312 -0.00157543 -0.00154548 -0.00154768 -0.00157543 -0.00157712 -0.0015215 -0.00152315 -0.00154768 -0.00154901 -0.00152315 -0.0015237 -0.00154901 -0.00154944 -0.00154768 -0.00154901 -0.00157712 -0.00157814 -0.00154901 -0.00154944 -0.00157814 -0.00157848 -0.00152867 -0.00153286 -0.00157679 -0.00157974 -0.00153286 -0.0015366 -0.00157974 -0.00158229 -0.00157679 -0.00157974 -0.0016243 -0.00162626 -0.00157974 -0.00158229 -0.00162626 -0.00162785 -0.0015366 -0.00154013 -0.00158229 -0.00158459 -0.00154013 -0.00154366 -0.00158459 -0.00158684 -0.00158229 -0.00158459 -0.00162785 -0.00162921 -0.00158459 -0.00158684 -0.00162921 -0.00163047 -0.0016243 -0.00162626 -0.00167134 -0.00167251 -0.00162626 -0.00162785 -0.00167251 -0.00167336 -0.00167134 -0.00167251 -0.00171796 -0.00171855 -0.00167251 -0.00167336 -0.00171855 -0.00171885 -0.00162785 -0.00162921 -0.00167336 -0.00167399 -0.00162921 -0.00163047 -0.00167399 -0.00167452 -0.00167336 -0.00167399 -0.00171885 -0.00171895 -0.00167399 -0.00167452 -0.00171895 -0.00171895 -0.00154366 -0.00154734 -0.00158684 -0.00158917 -0.00154734 -0.00155121 -0.00158917 -0.00159163 -0.00158684 -0.00158917 -0.00163047 -0.00163176 -0.00158917 -0.00159163 -0.00163176 -0.00163315 -0.00155121 -0.00155521 -0.00159163 -0.00159423 -0.00155521 -0.00155926 -0.00159423 -0.00159691 -0.00159163 -0.00159423 -0.00163315 -0.00163467 -0.00159423 -0.00159691 -0.00163467 -0.00163629 -0.00163047 -0.00163176 -0.00167452 -0.00167504 -0.00163176 -0.00163315 -0.00167504 -0.00167563 -0.00167452 -0.00167504 -0.00171895 -0.00171893 -0.00167504 -0.00167563 -0.00171893 -0.00171897 -0.00163315 -0.00163467 -0.00167563 -0.00167634 -0.00163467 -0.00163629 -0.00167634 -0.00167716 -0.00167563 -0.00167634 -0.00171897 -0.00171911 -0.00167634 -0.00167716 -0.00171911 -0.00171935 -0.00171796 -0.00171855 -0.0017642 -0.00176436 -0.00171855 -0.00171885 -0.00176436 -0.00176429 -0.0017642 -0.00176436 -0.00181001 -0.00180993 -0.00176436 -0.00176429 -0.00180993 -0.00180968 -0.00171885 -0.00171895 -0.