# vtk DataFile Version 3.0
#This file was generated by the deal.II library on 2018/7/10 at 10:46:53
ASCII
DATASET UNSTRUCTURED_GRID

POINTS 4096 double
0 0.5 0
0.03125 0.5 0
0 0.53125 0
0.03125 0.53125 0
0.03125 0.5 0
0.0625 0.5 0
0.03125 0.53125 0
0.0625 0.53125 0
0 0.53125 0
0.03125 0.53125 0
0 0.5625 0
0.03125 0.5625 0
0.03125 0.53125 0
0.0625 0.53125 0
0.03125 0.5625 0
0.0625 0.5625 0
0.0625 0.5 0
0.09375 0.5 0
0.0625 0.53125 0
0.09375 0.53125 0
0.09375 0.5 0
0.125 0.5 0
0.09375 0.53125 0
0.125 0.53125 0
0.0625 0.53125 0
0.09375 0.53125 0
0.0625 0.5625 0
0.09375 0.5625 0
0.09375 0.53125 0
0.125 0.53125 0
0.09375 0.5625 0
0.125 0.5625 0
0 0.5625 0
0.03125 0.5625 0
0 0.59375 0
0.03125 0.59375 0
0.03125 0.5625 0
0.0625 0.5625 0
0.03125 0.59375 0
0.0625 0.59375 0
0 0.59375 0
0.03125 0.59375 0
0 0.625 0
0.03125 0.625 0
0.03125 0.59375 0
0.0625 0.59375 0
0.03125 0.625 0
0.0625 0.625 0
0.0625 0.5625 0
0.09375 0.5625 0
0.0625 0.59375 0
0.09375 0.59375 0
0.09375 0.5625 0
0.125 0.5625 0
0.09375 0.59375 0
0.125 0.59375 0
0.0625 0.59375 0
0.09375 0.59375 0
0.0625 0.625 0
0.09375 0.625 0
0.09375 0.59375 0
0.125 0.59375 0
0.09375 0.625 0
0.125 0.625 0
0.125 0.5 0
0.15625 0.5 0
0.125 0.53125 0
0.15625 0.53125 0
0.15625 0.5 0
0.1875 0.5 0
0.15625 0.53125 0
0.1875 0.53125 0
0.125 0.53125 0
0.15625 0.53125 0
0.125 0.5625 0
0.15625 0.5625 0
0.15625 0.53125 0
0.1875 0.53125 0
0.15625 0.5625 0
0.1875 0.5625 0
0.1875 0.5 0
0.21875 0.5 0
0.1875 0.53125 0
0.21875 0.53125 0
0.21875 0.5 0
0.25 0.5 0
0.21875 0.53125 0
0.25 0.53125 0
0.1875 0.53125 0
0.21875 0.53125 0
0.1875 0.5625 0
0.21875 0.5625 0
0.21875 0.53125 0
0.25 0.53125 0
0.21875 0.5625 0
0.25 0.5625 0
0.125 0.5625 0
0.15625 0.5625 0
0.125 0.59375 0
0.15625 0.59375 0
0.15625 0.5625 0
0.1875 0.5625 0
0.15625 0.59375 0
0.1875 0.59375 0
0.125 0.59375 0
0.15625 0.59375 0
0.125 0.625 0
0.15625 0.625 0
0.15625 0.59375 0
0.1875 0.59375 0
0.15625 0.625 0
0.1875 0.625 0
0.1875 0.5625 0
0.21875 0.5625 0
0.1875 0.59375 0
0.21875 0.59375 0
0.21875 0.5625 0
0.25 0.5625 0
0.21875 0.59375 0
0.25 0.59375 0
0.1875 0.59375 0
0.21875 0.59375 0
0.1875 0.625 0
0.21875 0.625 0
0.21875 0.59375 0
0.25 0.59375 0
0.21875 0.625 0
0.25 0.625 0
0 0.625 0
0.03125 0.625 0
0 0.65625 0
0.03125 0.65625 0
0.03125 0.625 0
0.0625 0.625 0
0.03125 0.65625 0
0.0625 0.65625 0
0 0.65625 0
0.03125 0.65625 0
0 0.6875 0
0.03125 0.6875 0
0.03125 0.65625 0
0.0625 0.65625 0
0.03125 0.6875 0
0.0625 0.6875 0
0.0625 0.625 0
0.09375 0.625 0
0.0625 0.65625 0
0.09375 0.65625 0
0.09375 0.625 0
0.125 0.625 0
0.09375 0.65625 0
0.125 0.65625 0
0.0625 0.65625 0
0.09375 0.65625 0
0.0625 0.6875 0
0.09375 0.6875 0
0.09375 0.65625 0
0.125 0.65625 0
0.09375 0.6875 0
0.125 0.6875 0
0 0.6875 0
0.03125 0.6875 0
0 0.71875 0
0.03125 0.71875 0
0.03125 0.6875 0
0.0625 0.6875 0
0.03125 0.71875 0
0.0625 0.71875 0
0 0.71875 0
0.03125 0.71875 0
0 0.75 0
0.03125 0.75 0
0.03125 0.71875 0
0.0625 0.71875 0
0.03125 0.75 0
0.0625 0.75 0
0.0625 0.6875 0
0.09375 0.6875 0
0.0625 0.71875 0
0.09375 0.71875 0
0.09375 0.6875 0
0.125 0.6875 0
0.09375 0.71875 0
0.125 0.71875 0
0.0625 0.71875 0
0.09375 0.71875 0
0.0625 0.75 0
0.09375 0.75 0
0.09375 0.71875 0
0.125 0.71875 0
0.09375 0.75 0
0.125 0.75 0
0.125 0.625 0
0.15625 0.625 0
0.125 0.65625 0
0.15625 0.65625 0
0.15625 0.625 0
0.1875 0.625 0
0.15625 0.65625 0
0.1875 0.65625 0
0.125 0.65625 0
0.15625 0.65625 0
0.125 0.6875 0
0.15625 0.6875 0
0.15625 0.65625 0
0.1875 0.65625 0
0.15625 0.6875 0
0.1875 0.6875 0
0.1875 0.625 0
0.21875 0.625 0
0.1875 0.65625 0
0.21875 0.65625 0
0.21875 0.625 0
0.25 0.625 0
0.21875 0.65625 0
0.25 0.65625 0
0.1875 0.65625 0
0.21875 0.65625 0
0.1875 0.6875 0
0.21875 0.6875 0
0.21875 0.65625 0
0.25 0.65625 0
0.21875 0.6875 0
0.25 0.6875 0
0.125 0.6875 0
0.15625 0.6875 0
0.125 0.71875 0
0.15625 0.71875 0
0.15625 0.6875 0
0.1875 0.6875 0
0.15625 0.71875 0
0.1875 0.71875 0
0.125 0.71875 0
0.15625 0.71875 0
0.125 0.75 0
0.15625 0.75 0
0.15625 0.71875 0
0.1875 0.71875 0
0.15625 0.75 0
0.1875 0.75 0
0.1875 0.6875 0
0.21875 0.6875 0
0.1875 0.71875 0
0.21875 0.71875 0
0.21875 0.6875 0
0.25 0.6875 0
0.21875 0.71875 0
0.25 0.71875 0
0.1875 0.71875 0
0.21875 0.71875 0
0.1875 0.75 0
0.21875 0.75 0
0.21875 0.71875 0
0.25 0.71875 0
0.21875 0.75 0
0.25 0.75 0
0.25 0.5 0
0.28125 0.5 0
0.25 0.53125 0
0.28125 0.53125 0
0.28125 0.5 0
0.3125 0.5 0
0.28125 0.53125 0
0.3125 0.53125 0
0.25 0.53125 0
0.28125 0.53125 0
0.25 0.5625 0
0.28125 0.5625 0
0.28125 0.53125 0
0.3125 0.53125 0
0.28125 0.5625 0
0.3125 0.5625 0
0.3125 0.5 0
0.34375 0.5 0
0.3125 0.53125 0
0.34375 0.53125 0
0.34375 0.5 0
0.375 0.5 0
0.34375 0.53125 0
0.375 0.53125 0
0.3125 0.53125 0
0.34375 0.53125 0
0.3125 0.5625 0
0.34375 0.5625 0
0.34375 0.53125 0
0.375 0.53125 0
0.34375 0.5625 0
0.375 0.5625 0
0.25 0.5625 0
0.28125 0.5625 0
0.25 0.59375 0
0.28125 0.59375 0
0.28125 0.5625 0
0.3125 0.5625 0
0.28125 0.59375 0
0.3125 0.59375 0
0.25 0.59375 0
0.28125 0.59375 0
0.25 0.625 0
0.28125 0.625 0
0.28125 0.59375 0
0.3125 0.59375 0
0.28125 0.625 0
0.3125 0.625 0
0.3125 0.5625 0
0.34375 0.5625 0
0.3125 0.59375 0
0.34375 0.59375 0
0.34375 0.5625 0
0.375 0.5625 0
0.34375 0.59375 0
0.375 0.59375 0
0.3125 0.59375 0
0.34375 0.59375 0
0.3125 0.625 0
0.34375 0.625 0
0.34375 0.59375 0
0.375 0.59375 0
0.34375 0.625 0
0.375 0.625 0
0.375 0.5 0
0.40625 0.5 0
0.375 0.53125 0
0.40625 0.53125 0
0.40625 0.5 0
0.4375 0.5 0
0.40625 0.53125 0
0.4375 0.53125 0
0.375 0.53125 0
0.40625 0.53125 0
0.375 0.5625 0
0.40625 0.5625 0
0.40625 0.53125 0
0.4375 0.53125 0
0.40625 0.5625 0
0.4375 0.5625 0
0.4375 0.5 0
0.46875 0.5 0
0.4375 0.53125 0
0.46875 0.53125 0
0.46875 0.5 0
0.5 0.5 0
0.46875 0.53125 0
0.5 0.53125 0
0.4375 0.53125 0
0.46875 0.53125 0
0.4375 0.5625 0
0.46875 0.5625 0
0.46875 0.53125 0
0.5 0.53125 0
0.46875 0.5625 0
0.5 0.5625 0
0.375 0.5625 0
0.40625 0.5625 0
0.375 0.59375 0
0.40625 0.59375 0
0.40625 0.5625 0
0.4375 0.5625 0
0.40625 0.59375 0
0.4375 0.59375 0
0.375 0.59375 0
0.40625 0.59375 0
0.375 0.625 0
0.40625 0.625 0
0.40625 0.59375 0
0.4375 0.59375 0
0.40625 0.625 0
0.4375 0.625 0
0.4375 0.5625 0
0.46875 0.5625 0
0.4375 0.59375 0
0.46875 0.59375 0
0.46875 0.5625 0
0.5 0.5625 0
0.46875 0.59375 0
0.5 0.59375 0
0.4375 0.59375 0
0.46875 0.59375 0
0.4375 0.625 0
0.46875 0.625 0
0.46875 0.59375 0
0.5 0.59375 0
0.46875 0.625 0
0.5 0.625 0
0.25 0.625 0
0.28125 0.625 0
0.25 0.65625 0
0.28125 0.65625 0
0.28125 0.625 0
0.3125 0.625 0
0.28125 0.65625 0
0.3125 0.65625 0
0.25 0.65625 0
0.28125 0.65625 0
0.25 0.6875 0
0.28125 0.6875 0
0.28125 0.65625 0
0.3125 0.65625 0
0.28125 0.6875 0
0.3125 0.6875 0
0.3125 0.625 0
0.34375 0.625 0
0.3125 0.65625 0
0.34375 0.65625 0
0.34375 0.625 0
0.375 0.625 0
0.34375 0.65625 0
0.375 0.65625 0
0.3125 0.65625 0
0.34375 0.65625 0
0.3125 0.6875 0
0.34375 0.6875 0
0.34375 0.65625 0
0.375 0.65625 0
0.34375 0.6875 0
0.375 0.6875 0
0.25 0.6875 0
0.28125 0.6875 0
0.25 0.71875 0
0.28125 0.71875 0
0.28125 0.6875 0
0.3125 0.6875 0
0.28125 0.71875 0
0.3125 0.71875 0
0.25 0.71875 0
0.28125 0.71875 0
0.25 0.75 0
0.28125 0.75 0
0.28125 0.71875 0
0.3125 0.71875 0
0.28125 0.75 0
0.3125 0.75 0
0.3125 0.6875 0
0.34375 0.6875 0
0.3125 0.71875 0
0.34375 0.71875 0
0.34375 0.6875 0
0.375 0.6875 0
0.34375 0.71875 0
0.375 0.71875 0
0.3125 0.71875 0
0.34375 0.71875 0
0.3125 0.75 0
0.34375 0.75 0
0.34375 0.71875 0
0.375 0.71875 0
0.34375 0.75 0
0.375 0.75 0
0.375 0.625 0
0.40625 0.625 0
0.375 0.65625 0
0.40625 0.65625 0
0.40625 0.625 0
0.4375 0.625 0
0.40625 0.65625 0
0.4375 0.65625 0
0.375 0.65625 0
0.40625 0.65625 0
0.375 0.6875 0
0.40625 0.6875 0
0.40625 0.65625 0
0.4375 0.65625 0
0.40625 0.6875 0
0.4375 0.6875 0
0.4375 0.625 0
0.46875 0.625 0
0.4375 0.65625 0
0.46875 0.65625 0
0.46875 0.625 0
0.5 0.625 0
0.46875 0.65625 0
0.5 0.65625 0
0.4375 0.65625 0
0.46875 0.65625 0
0.4375 0.6875 0
0.46875 0.6875 0
0.46875 0.65625 0
0.5 0.65625 0
0.46875 0.6875 0
0.5 0.6875 0
0.375 0.6875 0
0.40625 0.6875 0
0.375 0.71875 0
0.40625 0.71875 0
0.40625 0.6875 0
0.4375 0.6875 0
0.40625 0.71875 0
0.4375 0.71875 0
0.375 0.71875 0
0.40625 0.71875 0
0.375 0.75 0
0.40625 0.75 0
0.40625 0.71875 0
0.4375 0.71875 0
0.40625 0.75 0
0.4375 0.75 0
0.4375 0.6875 0
0.46875 0.6875 0
0.4375 0.71875 0
0.46875 0.71875 0
0.46875 0.6875 0
0.5 0.6875 0
0.46875 0.71875 0
0.5 0.71875 0
0.4375 0.71875 0
0.46875 0.71875 0
0.4375 0.75 0
0.46875 0.75 0
0.46875 0.71875 0
0.5 0.71875 0
0.46875 0.75 0
0.5 0.75 0
0 0.75 0
0.03125 0.75 0
0 0.78125 0
0.03125 0.78125 0
0.03125 0.75 0
0.0625 0.75 0
0.03125 0.78125 0
0.0625 0.78125 0
0 0.78125 0
0.03125 0.78125 0
0 0.8125 0
0.03125 0.8125 0
0.03125 0.78125 0
0.0625 0.78125 0
0.03125 0.8125 0
0.0625 0.8125 0
0.0625 0.75 0
0.09375 0.75 0
0.0625 0.78125 0
0.09375 0.78125 0
0.09375 0.75 0
0.125 0.75 0
0.09375 0.78125 0
0.125 0.78125 0
0.0625 0.78125 0
0.09375 0.78125 0
0.0625 0.8125 0
0.09375 0.8125 0
0.09375 0.78125 0
0.125 0.78125 0
0.09375 0.8125 0
0.125 0.8125 0
0 0.8125 0
0.03125 0.8125 0
0 0.84375 0
0.03125 0.84375 0
0.03125 0.8125 0
0.0625 0.8125 0
0.03125 0.84375 0
0.0625 0.84375 0
0 0.84375 0
0.03125 0.84375 0
0 0.875 0
0.03125 0.875 0
0.03125 0.84375 0
0.0625 0.84375 0
0.03125 0.875 0
0.0625 0.875 0
0.0625 0.8125 0
0.09375 0.8125 0
0.0625 0.84375 0
0.09375 0.84375 0
0.09375 0.8125 0
0.125 0.8125 0
0.09375 0.84375 0
0.125 0.84375 0
0.0625 0.84375 0
0.09375 0.84375 0
0.0625 0.875 0
0.09375 0.875 0
0.09375 0.84375 0
0.125 0.84375 0
0.09375 0.875 0
0.125 0.875 0
0.125 0.75 0
0.15625 0.75 0
0.125 0.78125 0
0.15625 0.78125 0
0.15625 0.75 0
0.1875 0.75 0
0.15625 0.78125 0
0.1875 0.78125 0
0.125 0.78125 0
0.15625 0.78125 0
0.125 0.8125 0
0.15625 0.8125 0
0.15625 0.78125 0
0.1875 0.78125 0
0.15625 0.8125 0
0.1875 0.8125 0
0.1875 0.75 0
0.21875 0.75 0
0.1875 0.78125 0
0.21875 0.78125 0
0.21875 0.75 0
0.25 0.75 0
0.21875 0.78125 0
0.25 0.78125 0
0.1875 0.78125 0
0.21875 0.78125 0
0.1875 0.8125 0
0.21875 0.8125 0
0.21875 0.78125 0
0.25 0.78125 0
0.21875 0.8125 0
0.25 0.8125 0
0.125 0.8125 0
0.15625 0.8125 0
0.125 0.84375 0
0.15625 0.84375 0
0.15625 0.8125 0
[...]
POINT_DATA 4096
SCALARS State_InstatPDEProblemContainer_0 double 1
LOOKUP_TABLE default
-0.000801679 -0.000801609 -0.000857739 -0.000857731 -0.000801609 -0.000801534 -0.000857731 -0.000857845 -0.000857739 -0.000857731 -0.000913564 -0.000913615 -0.000857731 -0.000857845 -0.000913615 -0.000913907 -0.000801534 -0.000801455 -0.000857845 -0.000858088 -0.000801455 -0.000801368 -0.000858088 -0.000858471 -0.000857845 -0.000858088 -0.000913907 -0.000914453 -0.000858088 -0.000858471 -0.000914453 -0.000915273 -0.000913564 -0.000913615 -0.000968929 -0.000969034 -0.000913615 -0.000913907 -0.000969034 -0.000969481 -0.000968929 -0.000969034 -0.00102363 -0.00102378 -0.000969034 -0.000969481 -0.00102378 -0.00102435 -0.000913907 -0.000914453 -0.000969481 -0.000970288 -0.000914453 -0.000915273 -0.000970288 -0.000971483 -0.000969481 -0.000970288 -0.00102435 -0.00102536 -0.000970288 -0.000971483 -0.00102536 -0.00102685 -0.000801368 -0.000801275 -0.000858471 -0.000859013 -0.000801275 -0.000801171 -0.000859013 -0.000859743 -0.000858471 -0.000859013 -0.000915273 -0.000916405 -0.000859013 -0.000859743 -0.000916405 -0.000917899 -0.000801171 -0.000801057 -0.000859743 -0.000860702 -0.000801057 -0.000800928 -0.000860702 -0.000861951 -0.000859743 -0.000860702 -0.000917899 -0.000919832 -0.000860702 -0.000861951 -0.000919832 -0.00092231 -0.000915273 -0.000916405 -0.000971483 -0.000973112 -0.000916405 -0.000917899 -0.000973112 -0.00097524 -0.000971483 -0.000973112 -0.00102685 -0.00102886 -0.000973112 -0.00097524 -0.00102886 -0.00103145 -0.000917899 -0.000919832 -0.00097524 -0.000977959 -0.000919832 -0.00092231 -0.000977959 -0.000981395 -0.00097524 -0.000977959 -0.00103145 -0.00103472 -0.000977959 -0.000981395 -0.00103472 -0.00103878 -0.00102363 -0.00102378 -0.0010775 -0.00107768 -0.00102378 -0.00102435 -0.00107768 -0.00107834 -0.0010775 -0.00107768 -0.0011304 -0.0011306 -0.00107768 -0.00107834 -0.0011306 -0.00113131 -0.00102435 -0.00102536 -0.00107834 -0.0010795 -0.00102536 -0.00102685 -0.0010795 -0.00108118 -0.00107834 -0.0010795 -0.00113131 -0.00113254 -0.0010795 -0.00108118 -0.00113254 -0.00113432 -0.0011304 -0.0011306 -0.00118222 -0.00118243 -0.0011306 -0.00113131 -0.00118243 -0.00118315 -0.00118222 -0.00118243 -0.00123291 -0.00123312 -0.00118243 -0.00118315 -0.00123312 -0.00123383 -0.00113131 -0.00113254 -0.00118315 -0.00118441 -0.00113254 -0.00113432 -0.00118441 -0.0011862 -0.00118315 -0.00118441 -0.00123383 -0.00123505 -0.00118441 -0.0011862 -0.00123505 -0.00123679 -0.00102685 -0.00102886 -0.00108118 -0.00108343 -0.00102886 -0.00103145 -0.00108343 -0.0010863 -0.00108118 -0.00108343 -0.00113432 -0.00113668 -0.00108343 -0.0010863 -0.00113668 -0.00113967 -0.00103145 -0.00103472 -0.0010863 -0.00108987 -0.00103472 -0.00103878 -0.00108987 -0.00109423 -0.0010863 -0.00108987 -0.00113967 -0.00114332 -0.00108987 -0.00109423 -0.00114332 -0.00114769 -0.00113432 -0.00113668 -0.0011862 -0.00118856 -0.00113668 -0.00113967 -0.00118856 -0.00119151 -0.0011862 -0.00118856 -0.00123679 -0.00123905 -0.00118856 -0.00119151 -0.00123905 -0.00124184 -0.00113967 -0.00114332 -0.00119151 -0.00119506 -0.00114332 -0.00114769 -0.00119506 -0.00119923 -0.00119151 -0.00119506 -0.00124184 -0.00124516 -0.00119506 -0.00119923 -0.00124516 -0.00124899 -0.000800928 -0.000800782 -0.000861951 -0.000863583 -0.000800782 -0.000800613 -0.000863583 -0.000865742 -0.000861951 -0.000863583 -0.00092231 -0.000925494 -0.000863583 -0.000865742 -0.000925494 -0.000929617 -0.000800613 -0.000800414 -0.000865742 -0.00086866 -0.000800414 -0.000800172 -0.00086866 -0.000872742 -0.000865742 -0.00086866 -0.000929617 -0.000935039 -0.00086866 -0.000872742 -0.000935039 -0.000942321 -0.00092231 -0.000925494 -0.000981395 -0.000985726 -0.000925494 -0.000929617 -0.000985726 -0.000991195 -0.000981395 -0.000985726 -0.00103878 -0.00104378 -0.000985726 -0.000991195 -0.00104378 -0.00104993 -0.000929617 -0.000935039 -0.000991195 -0.000998137 -0.000935039 -0.000942321 -0.000998137 -0.001007 -0.000991195 -0.000998137 -0.00104993 -0.00105742 -0.000998137 -0.001007 -0.00105742 -0.00106648 -0.000800172 -0.000799857 -0.000872742 -0.000878741 -0.000799857 -0.000799412 -0.000878741 -0.000888289 -0.000872742 -0.000878741 -0.000942321 -0.000952376 -0.000878741 -0.000888289 -0.000952376 -0.000966566 -0.000799412 -0.000798592 -0.000888289 -0.000905104 -0.000798592 -0.000797466 -0.000905104 -0.000941769 -0.000888289 -0.000905104 -0.000966566 -0.000986948 -0.000905104 -0.000941769 -0.000986948 -0.00100844 -0.000942321 -0.000952376 -0.001007 -0.00101829 -0.000952376 -0.000966566 -0.00101829 -0.00103244 -0.001007 -0.00101829 -0.00106648 -0.00107721 -0.00101829 -0.00103244 -0.00107721 -0.00108927 -0.000966566 -0.000986948 -0.00103244 -0.00104839 -0.000986948 -0.00100844 -0.00104839 -0.00106476 -0.00103244 -0.00104839 -0.00108927 -0.00110193 -0.00104839 -0.00106476 -0.00110193 -0.00111409 -0.00103878 -0.00104378 -0.00109423 -0.00109947 -0.00104378 -0.00104993 -0.00109947 -0.00110572 -0.00109423 -0.00109947 -0.00114769 -0.00115283 -0.00109947 -0.00110572 -0.00115283 -0.00115877 -0.00104993 -0.00105742 -0.00110572 -0.00111305 -0.00105742 -0.00106648 -0.00111305 -0.00112147 -0.00110572 -0.00111305 -0.00115877 -0.0011655 -0.00111305 -0.00112147 -0.0011655 -0.00117292 -0.00114769 -0.00115283 -0.00119923 -0.00120403 -0.00115283 -0.00115877 -0.00120403 -0.00120943 -0.00119923 -0.00120403 -0.00124899 -0.0012533 -0.00120403 -0.00120943 -0.0012533 -0.00125804 -0.00115877 -0.0011655 -0.00120943 -0.00121535 -0.0011655 -0.00117292 -0.00121535 -0.00122165 -0.00120943 -0.00121535 -0.00125804 -0.00126309 -0.00121535 -0.00122165 -0.00126309 -0.00126831 -0.00106648 -0.00107721 -0.00112147 -0.00113085 -0.00107721 -0.00108927 -0.00113085 -0.00114078 -0.00112147 -0.00113085 -0.00117292 -0.0011808 -0.00113085 -0.00114078 -0.0011808 -0.0011888 -0.00108927 -0.00110193 -0.00114078 -0.00115066 -0.00110193 -0.00111409 -0.00115066 -0.00115996 -0.00114078 -0.00115066 -0.0011888 -0.00119651 -0.00115066 -0.00115996 -0.00119651 -0.00120362 -0.00117292 -0.0011808 -0.00122165 -0.00122812 -0.0011808 -0.0011888 -0.00122812 -0.00123447 -0.00122165 -0.00122812 -0.00126831 -0.00127351 -0.00122812 -0.00123447 -0.00127351 -0.00127848 -0.0011888 -0.00119651 -0.00123447 -0.00124044 -0.00119651 -0.00120362 -0.00124044 -0.00124584 -0.00123447 -0.00124044 -0.00127848 -0.00128304 -0.00124044 -0.00124584 -0.00128304 -0.00128708 -0.00123291 -0.00123312 -0.00128245 -0.00128264 -0.00123312 -0.00123383 -0.00128264 -0.00128331 -0.00128245 -0.00128264 -0.00133082 -0.001331 -0.00128264 -0.00128331 -0.001331 -0.00133161 -0.00123383 -0.00123505 -0.00128331 -0.00128446 -0.00123505 -0.00123679 -0.00128446 -0.00128608 -0.00128331 -0.00128446 -0.00133161 -0.00133265 -0.00128446 -0.00128608 -0.00133265 -0.00133411 -0.00133082 -0.001331 -0.00137807 -0.00137823 -0.001331 -0.00133161 -0.00137823 -0.00137876 -0.00137807 -0.00137823 -0.00142425 -0.00142438 -0.00137823 -0.00137876 -0.00142438 -0.00142483 -0.00133161 -0.00133265 -0.00137876 -0.00137967 -0.00133265 -0.00133411 -0.00137967 -0.00138095 -0.00137876 -0.00137967 -0.00142483 -0.00142559 -0.00137967 -0.00138095 -0.00142559 -0.00142665 -0.00123679 -0.00123905 -0.00128608 -0.00128817 -0.00123905 -0.00124184 -0.00128817 -0.00129073 -0.00128608 -0.00128817 -0.00133411 -0.00133599 -0.00128817 -0.00129073 -0.00133599 -0.00133825 -0.00124184 -0.00124516 -0.00129073 -0.00129372 -0.00124516 -0.00124899 -0.00129372 -0.00129713 -0.00129073 -0.00129372 -0.00133825 -0.00134087 -0.00129372 -0.00129713 -0.00134087 -0.00134381 -0.00133411 -0.00133599 -0.00138095 -0.00138257 -0.00133599 -0.00133825 -0.00138257 -0.00138451 -0.00138095 -0.00138257 -0.00142665 -0.001428 -0.00138257 -0.00138451 -0.001428 -0.0014296 -0.00133825 -0.00134087 -0.00138451 -0.00138673 -0.00134087 -0.00134381 -0.00138673 -0.00138919 -0.00138451 -0.00138673 -0.0014296 -0.00143141 -0.00138673 -0.00138919 -0.00143141 -0.00143338 -0.00142425 -0.00142438 -0.00146944 -0.00146953 -0.00142438 -0.00142483 -0.00146953 -0.00146988 -0.00146944 -0.00146953 -0.00151371 -0.00151377 -0.00146953 -0.00146988 -0.00151377 -0.00151402 -0.00142483 -0.00142559 -0.00146988 -0.00147048 -0.00142559 -0.00142665 -0.00147048 -0.00147131 -0.00146988 -0.00147048 -0.00151402 -0.00151443 -0.00147048 -0.00147131 -0.00151443 -0.00151502 -0.00151371 -0.00151377 -0.0015572 -0.00155722 -0.00151377 -0.00151402 -0.00155722 -0.00155734 -0.0015572 -0.00155722 -0.0016 -0.0016 -0.00155722 -0.00155734 -0.0016 -0.0016 -0.00151402 -0.00151443 -0.00155734 -0.00155757 -0.00151443 -0.00151502 -0.00155757 -0.00155788 -0.00155734 -0.00155757 -0.0016 -0.0016 -0.00155757 -0.00155788 -0.0016 -0.0016 -0.00142665 -0.001428 -0.00147131 -0.00147236 -0.001428 -0.0014296 -0.00147236 -0.0014736 -0.00147131 -0.00147236 -0.00151502 -0.00151575 -0.00147236 -0.0014736 -0.00151575 -0.00151661 -0.0014296 -0.00143141 -0.0014736 -0.00147499 -0.00143141 -0.00143338 -0.00147499 -0.00147649 -0.0014736 -0.00147499 -0.00151661 -0.00151758 -0.00147499 -0.00147649 -0.00151758 -0.0015186 -0.00151502 -0.00151575 -0.00155788 -0.00155827 -0.00151575 -0.00151661 -0.00155827 -0.00155872 -0.00155788 -0.00155827 -0.0016 -0.0016 -0.00155827 -0.00155872 -0.0016 -0.0016 -0.00151661 -0.00151758 -0.00155872 -0.00155923 -0.00151758 -0.0015186 -0.00155923 -0.00155976 -0.00155872 -0.00155923 -0.0016 -0.0016 -0.00155923 -0.00155976 -0.0016 -0.0016 -0.00124899 -0.0012533 -0.00129713 -0.00130089 -0.0012533 -0.00125804 -0.00130089 -0.00130492 -0.00129713 -0.00130089 -0.00134381 -0.00134699 -0.00130089 -0.00130492 -0.00134699 -0.00135034 -0.00125804 -0.00126309 -0.00130492 -0.00130912 -0.00126309 -0.00126831 -0.00130912 -0.00131336 -0.00130492 -0.00130912 -0.00135034 -0.00135376 -0.00130912 -0.00131336 -0.00135376 -0.00135711 -0.00134381 -0.00134699 -0.00138919 -0.00139181 -0.00134699 -0.00135034 -0.00139181 -0.00139451 -0.00138919 -0.00139181 -0.00143338 -0.00143546 -0.00139181 -0.00139451 -0.00143546 -0.00143756 -0.00135034 -0.00135376 -0.00139451 -0.0013972 -0.00135376 -0.00135711 -0.0013972 -0.00139979 -0.00139451 -0.0013972 -0.00143756 -0.00143962 -0.0013972 -0.00139979 -0.00143962 -0.00144154 -0.00126831 -0.00127351 -0.00131336 -0.00131746 -0.00127351 -0.00127848 -0.00131746 -0.00132128 -0.00131336 -0.00131746 -0.00135711 -0.00136027 -0.00131746 -0.00132128 -0.00136027 -0.00136313 -0.00127848 -0.00128304 -0.00132128 -0.00132469 -0.00128304 -0.00128708 -0.00132469 -0.00132763 -0.00132128 -0.00132469 -0.00136313 -0.00136561 -0.00132469 -0.00132763 -0.00136561 -0.00136767 -0.00135711 -0.00136027 -0.00139979 -0.00140216 -0.00136027 -0.00136313 -0.00140216 -0.00140423 -0.00139979 -0.00140216 -0.00144154 -0.00144325 -0.00140216 -0.00140423 -0.00144325 -0.00144468 -0.00136313 -0.00136561 -0.00140423 -0.00140595 -0.00136561 -0.00136767 -0.00140595 -0.0014073 -0.00140423 -0.00140595 -0.00144468 -0.0014458 -0.00140595 -0.0014073 -0.0014458 -0.00144659 -0.00143338 -0.00143546 -0.00147649 -0.00147805 -0.00143546 -0.00143756 -0.00147805 -0.0014796 -0.00147649 -0.00147805 -0.0015186 -0.00151966 -0.00147805 -0.0014796 -0.00151966 -0.00152069 -0.00143756 -0.00143962 -0.0014796 -0.00148109 -0.00143962 -0.00144154 -0.00148109 -0.00148244 -0.0014796 -0.00148109 -0.00152069 -0.00152166 -0.00148109 -0.00148244 -0.00152166 -0.00152251 -0.0015186 -0.00151966 -0.00155976 -0.0015603 -0.00151966 -0.00152069 -0.0015603 -0.00156083 -0.00155976 -0.0015603 -0.0016 -0.0016 -0.0015603 -0.00156083 -0.0016 -0.0016 -0.00152069 -0.00152166 -0.00156083 -0.00156131 -0.00152166 -0.00152251 -0.00156131 -0.00156173 -0.00156083 -0.00156131 -0.0016 -0.0016 -0.00156131 -0.00156173 -0.0016 -0.0016 -0.00144154 -0.00144325 -0.00148244 -0.00148359 -0.00144325 -0.00144468 -0.00148359 -0.00148451 -0.00148244 -0.00148359 -0.00152251 -0.00152321 -0.00148359 -0.00148451 -0.00152321 -0.00152373 -0.00144468 -0.0014458 -0.00148451 -0.00148517 -0.0014458 -0.00144659 -0.00148517 -0.00148556 -0.00148451 -0.00148517 -0.00152373 -0.00152405 -0.00148517 -0.00148556 -0.00152405 -0.00152417 -0.00152251 -0.00152321 -0.00156173 -0.00156205 -0.00152321 -0.00152373 -0.00156205 -0.00156227 -0.00156173 -0.00156205 -0.0016 -0.0016 -0.00156205 -0.00156227 -0.0016 -0.0016 -0.00152373 -0.00152405 -0.00156227 -0.00156237 -0.00152405 -0.00152417 -0.00156237 -0.00156235 -0.00156227 -0.00156237 -0.0016 -0.0016 -0.00156237 -0.00156235 -0.0016 -0.0016 -0.000797466 -0.000919404 -0.000941769 -0.000971288 -0.000919404 -0.000991798 -0.000971288 -0.00101192 -0.000941769 -0.000971288 -0.00100844 -0.0010308 -0.000971288 -0.00101192 -0.0010308 -0.00105232 -0.000991798 -0.001041 -0.00101192 -0.00105021 -0.001041 -0.00107824 -0.00105021 -0.00108293 -0.00101192 -0.00105021 -0.00105232 -0.00107695 -0.00105021 -0.00108293 -0.00107695 -0.00110145 -0.00100844 -0.0010308 -0.00106476 -0.00107988 -0.0010308 -0.00105232 -0.00107988 -0.00109511 -0.00106476 -0.00107988 -0.00111409 -0.00112544 -0.00107988 -0.00109511 -0.00112544 -0.00113638 -0.00105232 -0.00107695 -0.00109511 -0.00111126 -0.00107695 -0.00110145 -0.00111126 -0.00112851 -0.00109511 -0.00111126 -0.00113638 -0.00114781 -0.00111126 -0.00112851 -0.00114781 -0.00115998 -0.00107824 -0.00110792 -0.00108293 -0.00111046 -0.00110792 -0.0011322 -0.00111046 -0.00113364 -0.00108293 -0.00111046 -0.00110145 -0.00112402 -0.00111046 -0.00113364 -0.00112402 -0.00114409 -0.0011322 -0.00115232 -0.00113364 -0.00115318 -0.00115232 -0.00116906 -0.00115318 -0.00116964 -0.00113364 -0.00115318 -0.00114409 -0.00116162 -0.00115318 -0.00116964 -0.00116162 -0.00117673 -0.00110145 -0.00112402 -0.00112851 -0.00114568 -0.00112402 -0.00114409 -0.00114568 -0.00116186 -0.00112851 -0.00114568 -0.00115998 -0.00117259 -0.00114568 -0.00116186 -0.00117259 -0.00118504 -0.00114409 -0.00116162 -0.00116186 -0.0011766 -0.00116162 -0.00117673 -0.0011766 -0.00118971 -0.00116186 -0.0011766 -0.00118504 -0.00119684 -0.0011766 -0.00118971 -0.00119684 -0.00120767 -0.00111409 -0.00112544 -0.00115996 -0.00116851 -0.00112544 -0.00113638 -0.00116851 -0.00117664 -0.00115996 -0.00116851 -0.00120362 -0.00121008 -0.00116851 -0.00117664 -0.00121008 -0.00121612 -0.00113638 -0.00114781 -0.00117664 -0.00118489 -0.00114781 -0.00115998 -0.00118489 -0.0011936 -0.00117664 -0.00118489 -0.00121612 -0.00122212 -0.00118489 -0.0011936 -0.00122212 -0.00122834 -0.00120362 -0.00121008 -0.00124584 -0.00125068 -0.00121008 -0.00121612 -0.00125068 -0.00125511 -0.00124584 -0.00125068 -0.00128708 -0.00129062 -0.00125068 -0.00125511 -0.00129062 -0.00129379 -0.00121612 -0.00122212 -0.00125511 -0.00125941 -0.00122212 -0.00122834 -0.00125941 -0.00126379 -0.00125511 -0.00125941 -0.00129379 -0.00129677 -0.00125941 -0.00126379 -0.00129677 -0.00129975 -0.00115998 -0.00117259 -0.0011936 -0.00120274 -0.00117259 -0.00118504 -0.00120274 -0.00121203 -0.0011936 -0.00120274 -0.00122834 -0.00123489 -0.00120274 -0.00121203 -0.00123489 -0.00124166 -0.00118504 -0.00119684 -0.00121203 -0.00122112 -0.00119684 -0.00120767 -0.00122112 -0.00122971 -0.00121203 -0.00122112 -0.00124166 -0.00124844 -0.00122112 -0.00122971 -0.00124844 -0.00125501 -0.00122834 -0.00123489 -0.00126379 -0.00126839 -0.00123489 -0.00124166 -0.00126839 -0.00127318 -0.00126379 -0.00126839 -0.00129975 -0.00130286 -0.00126839 -0.00127318 -0.00130286 -0.00130612 -0.00124166 -0.00124844 -0.00127318 -0.00127808 -0.00124844 -0.00125501 -0.00127808 -0.00128292 -0.00127318 -0.00127808 -0.00130612 -0.00130951 -0.00127808 -0.00128292 -0.00130951 -0.00131292 -0.00116906 -0.00118297 -0.00116964 -0.00118343 -0.00118297 -0.00119444 -0.00118343 -0.00119487 -0.00116964 -0.00118343 -0.00117673 -0.00118962 -0.00118343 -0.00119487 -0.00118962 -0.00120044 -0.00119444 -0.00120374 -0.00119487 -0.0012042 -0.00120374 -0.0012111 -0.0012042 -0.00121162 -0.00119487 -0.0012042 -0.00120044 -0.00120935 -0.0012042 -0.00121162 -0.00120935 -0.00121648 -0.00117673 -0.00118962 -0.00118971 -0.00120112 -0.00118962 -0.00120044 -0.00120112 -0.00121088 -0.00118971 -0.00120112 -0.00120767 -0.00121733 -0.00120112 -0.00121088 -0.00121733 -0.00122574 -0.00120044 -0.00120935 -0.00121088 -0.001219 -0.00120935 -0.00121648 -0.001219 -0.00122557 -0.00121088 -0.001219 -0.00122574 -0.00123286 -0.001219 -0.00122557 -0.00123286 -0.00123866 -0.0012111 -0.00121667 -0.00121162 -0.00121725 -0.00121667 -0.00122057 -0.00121725 -0.0012212 -0.00121162 -0.00121725 -0.00121648 -0.00122192 -0.00121725 -0.0012212 -0.00122192 -0.00122575 -0.00122057 -0.00122289 -0.0012212 -0.00122355 -0.00122289 -0.00122365 -0.00122355 -0.00122433 -0.0012212 -0.00122355 -0.00122575 -0.00122803 -0.00122355 -0.00122433 -0.00122803 -0.00122879 -0.00121648 -0.00122192 -0.00122557 -0.00123061 -0.00122192 -0.00122575 -0.00123061 -0.00123418 -0.00122557 -0.00123061 -0.00123866 -0.00124316 -0.00123061 -0.00123418 -0.00124316 -0.00124636 -0.00122575 -0.00122803 -0.00123418 -0.00123631 -0.00122803 -0.00122879 -0.00123631 -0.00123702 -0.00123418 -0.00123631 -0.00124636 -0.00124828 -0.00123631 -0.00123702 -0.00124828 -0.00124892 -0.00120767 -0.00121733 -0.00122971 -0.00123756 -0.00121733 -0.00122574 -0.00123756 -0.00124453 -0.00122971 -0.00123756 -0.00125501 -0.00126115 -0.00123756 -0.00124453 -0.00126115 -0.00126671 -0.00122574 -0.00123286 -0.00124453 -0.00125051 -0.00123286 -0.00123866 -0.00125051 -0.00125546 -0.00124453 -0.00125051 -0.00126671 -0.00127156 -0.00125051 -0.00125546 -0.00127156 -0.00127561 -0.00125501 -0.00126115 -0.00128292 -0.00128754 -0.00126115 -0.00126671 -0.00128754 -0.0012918 -0.00128292 -0.00128754 -0.00131292 -0.00131625 -0.00128754 -0.0012918 -0.00131625 -0.00131938 -0.00126671 -0.00127156 -0.0012918 -0.00129558 -0.00127156 -0.00127561 -0.00129558 -0.00129878 -0.0012918 -0.00129558 -0.00131938 -0.00132219 -0.00129558 -0.00129878 -0.00132219 -0.00132461 -0.00123866 -0.00124316 -0.00125546 -0.00125932 -0.00124316 -0.00124636 -0.00125932 -0.00126209 -0.00125546 -0.00125932 -0.00127561 -0.00127882 -0.00125932 -0.00126209 -0.00127882 -0.00128113 -0.00124636 -0.00124828 -0.00126209 -0.00126376 -0.00124828 -0.00124892 -0.00126376 -0.00126431 -0.00126209 -0.00126376 -0.00128113 -0.00128252 -0.00126376 -0.00126431 -0.00128252 -0.00128298 -0.00127561 -0.00127882 -0.00129878 -0.00130133 -0.00127882 -0.00128113 -0.00130133 -0.00130319 -0.00129878 -0.00130133 -0.00132461 -0.00132657 -0.00130133 -0.00130319 -0.00132657 -0.00132799 -0.00128113 -0.00128252 -0.00130319 -0.00130431 -0.00128252 -0.00128298 -0.00130431 -0.00130468 -0.00130319 -0.00130431 -0.00132799 -0.00132886 -0.00130431 -0.00130468 -0.00132886 -0.00132915 -0.00128708 -0.00129062 -0.00132763 -0.00133013 -0.00129062 -0.00129379 -0.00133013 -0.00133228 -0.00132763 -0.00133013 -0.00136767 -0.00136933 -0.00133013 -0.00133228 -0.00136933 -0.00137068 -0.00129379 -0.00129677 -0.00133228 -0.00133424 -0.00129677 -0.00129975 -0.00133424 -0.00133614 -0.00133228 -0.00133424 -0.00137068 -0.00137183 -0.00133424 -0.00133614 -0.00137183 -0.0013729 -0.00136767 -0.00136933 -0.0014073 -0.00140831 -0.00136933 -0.00137068 -0.00140831 -0.00140903 -0.0014073 -0.00140831 -0.00144659 -0.00144709 -0.00140831 -0.00140903 -0.00144709 -0.00144735 -0.00137068 -0.00137183 -0.00140903 -0.00140957 -0.00137183 -0.0013729 -0.00140957 -0.00141001 -0.00140903 -0.00140957 -0.00144735 -0.00144744 -0.00140957 -0.00141001 -0.00144744 -0.00144745 -0.00129975 -0.00130286 -0.00133614 -0.0013381 -0.00130286 -0.00130612 -0.0013381 -0.00134019 -0.00133614 -0.0013381 -0.0013729 -0.001374 -0.0013381 -0.00134019 -0.001374 -0.00137517 -0.00130612 -0.00130951 -0.00134019 -0.00134238 -0.00130951 -0.00131292 -0.00134238 -0.00134465 -0.00134019 -0.00134238 -0.00137517 -0.00137646 -0.00134238 -0.00134465 -0.00137646 -0.00137783 -0.0013729 -0.001374 -0.00141001 -0.00141046 -0.001374 -0.00137517 -0.00141046 -0.00141097 -0.00141001 -0.00141046 -0.00144745 -0.00144744 -0.00141046 -0.00141097 -0.00144744 -0.00144748 -0.00137517 -0.00137646 -0.00141097 -0.00141157 -0.00137646 -0.00137783 -0.00141157 -0.00141226 -0.00141097 -0.00141157 -0.00144748 -0.0014476 -0.00141157 -0.00141226 -0.0014476 -0.00144781 -0.00144659 -0.001447