# vtk DataFile Version 3.0
#This file was generated by the deal.II library on 2018/7/10 at 10:46:52
ASCII
DATASET UNSTRUCTURED_GRID

POINTS 4096 double
0 0.5 0
0.03125 0.5 0
0 0.53125 0
0.03125 0.53125 0
0.03125 0.5 0
0.0625 0.5 0
0.03125 0.53125 0
0.0625 0.53125 0
0 0.53125 0
0.03125 0.53125 0
0 0.5625 0
0.03125 0.5625 0
0.03125 0.53125 0
0.0625 0.53125 0
0.03125 0.5625 0
0.0625 0.5625 0
0.0625 0.5 0
0.09375 0.5 0
0.0625 0.53125 0
0.09375 0.53125 0
0.09375 0.5 0
0.125 0.5 0
0.09375 0.53125 0
0.125 0.53125 0
0.0625 0.53125 0
0.09375 0.53125 0
0.0625 0.5625 0
0.09375 0.5625 0
0.09375 0.53125 0
0.125 0.53125 0
0.09375 0.5625 0
0.125 0.5625 0
0 0.5625 0
0.03125 0.5625 0
0 0.59375 0
0.03125 0.59375 0
0.03125 0.5625 0
0.0625 0.5625 0
0.03125 0.59375 0
0.0625 0.59375 0
0 0.59375 0
0.03125 0.59375 0
0 0.625 0
0.03125 0.625 0
0.03125 0.59375 0
0.0625 0.59375 0
0.03125 0.625 0
0.0625 0.625 0
0.0625 0.5625 0
0.09375 0.5625 0
0.0625 0.59375 0
0.09375 0.59375 0
0.09375 0.5625 0
0.125 0.5625 0
0.09375 0.59375 0
0.125 0.59375 0
0.0625 0.59375 0
0.09375 0.59375 0
0.0625 0.625 0
0.09375 0.625 0
0.09375 0.59375 0
0.125 0.59375 0
0.09375 0.625 0
0.125 0.625 0
0.125 0.5 0
0.15625 0.5 0
0.125 0.53125 0
0.15625 0.53125 0
0.15625 0.5 0
0.1875 0.5 0
0.15625 0.53125 0
0.1875 0.53125 0
0.125 0.53125 0
0.15625 0.53125 0
0.125 0.5625 0
0.15625 0.5625 0
0.15625 0.53125 0
0.1875 0.53125 0
0.15625 0.5625 0
0.1875 0.5625 0
0.1875 0.5 0
0.21875 0.5 0
0.1875 0.53125 0
0.21875 0.53125 0
0.21875 0.5 0
0.25 0.5 0
0.21875 0.53125 0
0.25 0.53125 0
0.1875 0.53125 0
0.21875 0.53125 0
0.1875 0.5625 0
0.21875 0.5625 0
0.21875 0.53125 0
0.25 0.53125 0
0.21875 0.5625 0
0.25 0.5625 0
0.125 0.5625 0
0.15625 0.5625 0
0.125 0.59375 0
0.15625 0.59375 0
0.15625 0.5625 0
0.1875 0.5625 0
0.15625 0.59375 0
0.1875 0.59375 0
0.125 0.59375 0
0.15625 0.59375 0
0.125 0.625 0
0.15625 0.625 0
0.15625 0.59375 0
0.1875 0.59375 0
0.15625 0.625 0
0.1875 0.625 0
0.1875 0.5625 0
0.21875 0.5625 0
0.1875 0.59375 0
0.21875 0.59375 0
0.21875 0.5625 0
0.25 0.5625 0
0.21875 0.59375 0
0.25 0.59375 0
0.1875 0.59375 0
0.21875 0.59375 0
0.1875 0.625 0
0.21875 0.625 0
0.21875 0.59375 0
0.25 0.59375 0
0.21875 0.625 0
0.25 0.625 0
0 0.625 0
0.03125 0.625 0
0 0.65625 0
0.03125 0.65625 0
0.03125 0.625 0
0.0625 0.625 0
0.03125 0.65625 0
0.0625 0.65625 0
0 0.65625 0
0.03125 0.65625 0
0 0.6875 0
0.03125 0.6875 0
0.03125 0.65625 0
0.0625 0.65625 0
0.03125 0.6875 0
0.0625 0.6875 0
0.0625 0.625 0
0.09375 0.625 0
0.0625 0.65625 0
0.09375 0.65625 0
0.09375 0.625 0
0.125 0.625 0
0.09375 0.65625 0
0.125 0.65625 0
0.0625 0.65625 0
0.09375 0.65625 0
0.0625 0.6875 0
0.09375 0.6875 0
0.09375 0.65625 0
0.125 0.65625 0
0.09375 0.6875 0
0.125 0.6875 0
0 0.6875 0
0.03125 0.6875 0
0 0.71875 0
0.03125 0.71875 0
0.03125 0.6875 0
0.0625 0.6875 0
0.03125 0.71875 0
0.0625 0.71875 0
0 0.71875 0
0.03125 0.71875 0
0 0.75 0
0.03125 0.75 0
0.03125 0.71875 0
0.0625 0.71875 0
0.03125 0.75 0
0.0625 0.75 0
0.0625 0.6875 0
0.09375 0.6875 0
0.0625 0.71875 0
0.09375 0.71875 0
0.09375 0.6875 0
0.125 0.6875 0
0.09375 0.71875 0
0.125 0.71875 0
0.0625 0.71875 0
0.09375 0.71875 0
0.0625 0.75 0
0.09375 0.75 0
0.09375 0.71875 0
0.125 0.71875 0
0.09375 0.75 0
0.125 0.75 0
0.125 0.625 0
0.15625 0.625 0
0.125 0.65625 0
0.15625 0.65625 0
0.15625 0.625 0
0.1875 0.625 0
0.15625 0.65625 0
0.1875 0.65625 0
0.125 0.65625 0
0.15625 0.65625 0
0.125 0.6875 0
0.15625 0.6875 0
0.15625 0.65625 0
0.1875 0.65625 0
0.15625 0.6875 0
0.1875 0.6875 0
0.1875 0.625 0
0.21875 0.625 0
0.1875 0.65625 0
0.21875 0.65625 0
0.21875 0.625 0
0.25 0.625 0
0.21875 0.65625 0
0.25 0.65625 0
0.1875 0.65625 0
0.21875 0.65625 0
0.1875 0.6875 0
0.21875 0.6875 0
0.21875 0.65625 0
0.25 0.65625 0
0.21875 0.6875 0
0.25 0.6875 0
0.125 0.6875 0
0.15625 0.6875 0
0.125 0.71875 0
0.15625 0.71875 0
0.15625 0.6875 0
0.1875 0.6875 0
0.15625 0.71875 0
0.1875 0.71875 0
0.125 0.71875 0
0.15625 0.71875 0
0.125 0.75 0
0.15625 0.75 0
0.15625 0.71875 0
0.1875 0.71875 0
0.15625 0.75 0
0.1875 0.75 0
0.1875 0.6875 0
0.21875 0.6875 0
0.1875 0.71875 0
0.21875 0.71875 0
0.21875 0.6875 0
0.25 0.6875 0
0.21875 0.71875 0
0.25 0.71875 0
0.1875 0.71875 0
0.21875 0.71875 0
0.1875 0.75 0
0.21875 0.75 0
0.21875 0.71875 0
0.25 0.71875 0
0.21875 0.75 0
0.25 0.75 0
0.25 0.5 0
0.28125 0.5 0
0.25 0.53125 0
0.28125 0.53125 0
0.28125 0.5 0
0.3125 0.5 0
0.28125 0.53125 0
0.3125 0.53125 0
0.25 0.53125 0
0.28125 0.53125 0
0.25 0.5625 0
0.28125 0.5625 0
0.28125 0.53125 0
0.3125 0.53125 0
0.28125 0.5625 0
0.3125 0.5625 0
0.3125 0.5 0
0.34375 0.5 0
0.3125 0.53125 0
0.34375 0.53125 0
0.34375 0.5 0
0.375 0.5 0
0.34375 0.53125 0
0.375 0.53125 0
0.3125 0.53125 0
0.34375 0.53125 0
0.3125 0.5625 0
0.34375 0.5625 0
0.34375 0.53125 0
0.375 0.53125 0
0.34375 0.5625 0
0.375 0.5625 0
0.25 0.5625 0
0.28125 0.5625 0
0.25 0.59375 0
0.28125 0.59375 0
0.28125 0.5625 0
0.3125 0.5625 0
0.28125 0.59375 0
0.3125 0.59375 0
0.25 0.59375 0
0.28125 0.59375 0
0.25 0.625 0
0.28125 0.625 0
0.28125 0.59375 0
0.3125 0.59375 0
0.28125 0.625 0
0.3125 0.625 0
0.3125 0.5625 0
0.34375 0.5625 0
0.3125 0.59375 0
0.34375 0.59375 0
0.34375 0.5625 0
0.375 0.5625 0
0.34375 0.59375 0
0.375 0.59375 0
0.3125 0.59375 0
0.34375 0.59375 0
0.3125 0.625 0
0.34375 0.625 0
0.34375 0.59375 0
0.375 0.59375 0
0.34375 0.625 0
0.375 0.625 0
0.375 0.5 0
0.40625 0.5 0
0.375 0.53125 0
0.40625 0.53125 0
0.40625 0.5 0
0.4375 0.5 0
0.40625 0.53125 0
0.4375 0.53125 0
0.375 0.53125 0
0.40625 0.53125 0
0.375 0.5625 0
0.40625 0.5625 0
0.40625 0.53125 0
0.4375 0.53125 0
0.40625 0.5625 0
0.4375 0.5625 0
0.4375 0.5 0
0.46875 0.5 0
0.4375 0.53125 0
0.46875 0.53125 0
0.46875 0.5 0
0.5 0.5 0
0.46875 0.53125 0
0.5 0.53125 0
0.4375 0.53125 0
0.46875 0.53125 0
0.4375 0.5625 0
0.46875 0.5625 0
0.46875 0.53125 0
0.5 0.53125 0
0.46875 0.5625 0
0.5 0.5625 0
0.375 0.5625 0
0.40625 0.5625 0
0.375 0.59375 0
0.40625 0.59375 0
0.40625 0.5625 0
0.4375 0.5625 0
0.40625 0.59375 0
0.4375 0.59375 0
0.375 0.59375 0
0.40625 0.59375 0
0.375 0.625 0
0.40625 0.625 0
0.40625 0.59375 0
0.4375 0.59375 0
0.40625 0.625 0
0.4375 0.625 0
0.4375 0.5625 0
0.46875 0.5625 0
0.4375 0.59375 0
0.46875 0.59375 0
0.46875 0.5625 0
0.5 0.5625 0
0.46875 0.59375 0
0.5 0.59375 0
0.4375 0.59375 0
0.46875 0.59375 0
0.4375 0.625 0
0.46875 0.625 0
0.46875 0.59375 0
0.5 0.59375 0
0.46875 0.625 0
0.5 0.625 0
0.25 0.625 0
0.28125 0.625 0
0.25 0.65625 0
0.28125 0.65625 0
0.28125 0.625 0
0.3125 0.625 0
0.28125 0.65625 0
0.3125 0.65625 0
0.25 0.65625 0
0.28125 0.65625 0
0.25 0.6875 0
0.28125 0.6875 0
0.28125 0.65625 0
0.3125 0.65625 0
0.28125 0.6875 0
0.3125 0.6875 0
0.3125 0.625 0
0.34375 0.625 0
0.3125 0.65625 0
0.34375 0.65625 0
0.34375 0.625 0
0.375 0.625 0
0.34375 0.65625 0
0.375 0.65625 0
0.3125 0.65625 0
0.34375 0.65625 0
0.3125 0.6875 0
0.34375 0.6875 0
0.34375 0.65625 0
0.375 0.65625 0
0.34375 0.6875 0
0.375 0.6875 0
0.25 0.6875 0
0.28125 0.6875 0
0.25 0.71875 0
0.28125 0.71875 0
0.28125 0.6875 0
0.3125 0.6875 0
0.28125 0.71875 0
0.3125 0.71875 0
0.25 0.71875 0
0.28125 0.71875 0
0.25 0.75 0
0.28125 0.75 0
0.28125 0.71875 0
0.3125 0.71875 0
0.28125 0.75 0
0.3125 0.75 0
0.3125 0.6875 0
0.34375 0.6875 0
0.3125 0.71875 0
0.34375 0.71875 0
0.34375 0.6875 0
0.375 0.6875 0
0.34375 0.71875 0
0.375 0.71875 0
0.3125 0.71875 0
0.34375 0.71875 0
0.3125 0.75 0
0.34375 0.75 0
0.34375 0.71875 0
0.375 0.71875 0
0.34375 0.75 0
0.375 0.75 0
0.375 0.625 0
0.40625 0.625 0
0.375 0.65625 0
0.40625 0.65625 0
0.40625 0.625 0
0.4375 0.625 0
0.40625 0.65625 0
0.4375 0.65625 0
0.375 0.65625 0
0.40625 0.65625 0
0.375 0.6875 0
0.40625 0.6875 0
0.40625 0.65625 0
0.4375 0.65625 0
0.40625 0.6875 0
0.4375 0.6875 0
0.4375 0.625 0
0.46875 0.625 0
0.4375 0.65625 0
0.46875 0.65625 0
0.46875 0.625 0
0.5 0.625 0
0.46875 0.65625 0
0.5 0.65625 0
0.4375 0.65625 0
0.46875 0.65625 0
0.4375 0.6875 0
0.46875 0.6875 0
0.46875 0.65625 0
0.5 0.65625 0
0.46875 0.6875 0
0.5 0.6875 0
0.375 0.6875 0
0.40625 0.6875 0
0.375 0.71875 0
0.40625 0.71875 0
0.40625 0.6875 0
0.4375 0.6875 0
0.40625 0.71875 0
0.4375 0.71875 0
0.375 0.71875 0
0.40625 0.71875 0
0.375 0.75 0
0.40625 0.75 0
0.40625 0.71875 0
0.4375 0.71875 0
0.40625 0.75 0
0.4375 0.75 0
0.4375 0.6875 0
0.46875 0.6875 0
0.4375 0.71875 0
0.46875 0.71875 0
0.46875 0.6875 0
0.5 0.6875 0
0.46875 0.71875 0
0.5 0.71875 0
0.4375 0.71875 0
0.46875 0.71875 0
0.4375 0.75 0
0.46875 0.75 0
0.46875 0.71875 0
0.5 0.71875 0
0.46875 0.75 0
0.5 0.75 0
0 0.75 0
0.03125 0.75 0
0 0.78125 0
0.03125 0.78125 0
0.03125 0.75 0
0.0625 0.75 0
0.03125 0.78125 0
0.0625 0.78125 0
0 0.78125 0
0.03125 0.78125 0
0 0.8125 0
0.03125 0.8125 0
0.03125 0.78125 0
0.0625 0.78125 0
0.03125 0.8125 0
0.0625 0.8125 0
0.0625 0.75 0
0.09375 0.75 0
0.0625 0.78125 0
0.09375 0.78125 0
0.09375 0.75 0
0.125 0.75 0
0.09375 0.78125 0
0.125 0.78125 0
0.0625 0.78125 0
0.09375 0.78125 0
0.0625 0.8125 0
0.09375 0.8125 0
0.09375 0.78125 0
0.125 0.78125 0
0.09375 0.8125 0
0.125 0.8125 0
0 0.8125 0
0.03125 0.8125 0
0 0.84375 0
0.03125 0.84375 0
0.03125 0.8125 0
0.0625 0.8125 0
0.03125 0.84375 0
0.0625 0.84375 0
0 0.84375 0
0.03125 0.84375 0
0 0.875 0
0.03125 0.875 0
0.03125 0.84375 0
0.0625 0.84375 0
0.03125 0.875 0
0.0625 0.875 0
0.0625 0.8125 0
0.09375 0.8125 0
0.0625 0.84375 0
0.09375 0.84375 0
0.09375 0.8125 0
0.125 0.8125 0
0.09375 0.84375 0
0.125 0.84375 0
0.0625 0.84375 0
0.09375 0.84375 0
0.0625 0.875 0
0.09375 0.875 0
0.09375 0.84375 0
0.125 0.84375 0
0.09375 0.875 0
0.125 0.875 0
0.125 0.75 0
0.15625 0.75 0
0.125 0.78125 0
0.15625 0.78125 0
0.15625 0.75 0
0.1875 0.75 0
0.15625 0.78125 0
0.1875 0.78125 0
0.125 0.78125 0
0.15625 0.78125 0
0.125 0.8125 0
0.15625 0.8125 0
0.15625 0.78125 0
0.1875 0.78125 0
0.15625 0.8125 0
0.1875 0.8125 0
0.1875 0.75 0
0.21875 0.75 0
0.1875 0.78125 0
0.21875 0.78125 0
0.21875 0.75 0
0.25 0.75 0
0.21875 0.78125 0
0.25 0.78125 0
0.1875 0.78125 0
0.21875 0.78125 0
0.1875 0.8125 0
0.21875 0.8125 0
0.21875 0.78125 0
0.25 0.78125 0
0.21875 0.8125 0
0.25 0.8125 0
0.125 0.8125 0
0.15625 0.8125 0
0.125 0.84375 0
0.15625 0.84375 0
0.15625 0.8125 0
[...]
POINT_DATA 4096
SCALARS State_InstatPDEProblemContainer_0 double 1
LOOKUP_TABLE default
-0.000701166 -0.000701119 -0.000750207 -0.000750213 -0.000701119 -0.000701066 -0.000750213 -0.000750326 -0.000750207 -0.000750213 -0.000799046 -0.000799105 -0.000750213 -0.000750326 -0.000799105 -0.000799372 -0.000701066 -0.000701007 -0.000750326 -0.000750549 -0.000701007 -0.000700942 -0.000750549 -0.000750894 -0.000750326 -0.000750549 -0.000799372 -0.00079986 -0.000750549 -0.000750894 -0.00079986 -0.000800587 -0.000799046 -0.000799105 -0.000847489 -0.000847593 -0.000799105 -0.000799372 -0.000847593 -0.000847996 -0.000847489 -0.000847593 -0.000895357 -0.000895499 -0.000847593 -0.000847996 -0.000895499 -0.00089601 -0.000799372 -0.00079986 -0.000847996 -0.000848712 -0.00079986 -0.000800587 -0.000848712 -0.000849767 -0.000847996 -0.000848712 -0.00089601 -0.000896906 -0.000848712 -0.000849767 -0.000896906 -0.000898215 -0.000700942 -0.000700869 -0.000750894 -0.000751376 -0.000700869 -0.000700786 -0.000751376 -0.000752022 -0.000750894 -0.000751376 -0.000800587 -0.000801585 -0.000751376 -0.000752022 -0.000801585 -0.000802899 -0.000700786 -0.000700692 -0.000752022 -0.000752866 -0.000700692 -0.000700585 -0.000752866 -0.000753963 -0.000752022 -0.000752866 -0.000802899 -0.000804595 -0.000752866 -0.000753963 -0.000804595 -0.000806768 -0.000800587 -0.000801585 -0.000849767 -0.0008512 -0.000801585 -0.000802899 -0.0008512 -0.000853069 -0.000849767 -0.0008512 -0.000898215 -0.000899978 -0.0008512 -0.000853069 -0.000899978 -0.000902253 -0.000802899 -0.000804595 -0.000853069 -0.000855453 -0.000804595 -0.000806768 -0.000855453 -0.000858465 -0.000853069 -0.000855453 -0.000902253 -0.000905118 -0.000855453 -0.000858465 -0.000905118 -0.000908678 -0.000895357 -0.000895499 -0.0009425 -0.000942668 -0.000895499 -0.00089601 -0.000942668 -0.000943256 -0.0009425 -0.000942668 -0.000988796 -0.000988982 -0.000942668 -0.000943256 -0.000988982 -0.000989613 -0.00089601 -0.000896906 -0.000943256 -0.000944277 -0.000896906 -0.000898215 -0.000944277 -0.000945758 -0.000943256 -0.000944277 -0.000989613 -0.000990704 -0.000944277 -0.000945758 -0.000990704 -0.000992272 -0.000988796 -0.000988982 -0.00103416 -0.00103435 -0.000988982 -0.000989613 -0.00103435 -0.001035 -0.00103416 -0.00103435 -0.00107854 -0.00107873 -0.00103435 -0.001035 -0.00107873 -0.00107936 -0.000989613 -0.000990704 -0.001035 -0.0010361 -0.000990704 -0.000992272 -0.0010361 -0.00103769 -0.001035 -0.0010361 -0.00107936 -0.00108044 -0.0010361 -0.00103769 -0.00108044 -0.00108197 -0.000898215 -0.000899978 -0.000945758 -0.000947734 -0.000899978 -0.000902253 -0.000947734 -0.000950255 -0.000945758 -0.000947734 -0.000992272 -0.000994347 -0.000947734 -0.000950255 -0.000994347 -0.000996964 -0.000902253 -0.000905118 -0.000950255 -0.000953386 -0.000905118 -0.000908678 -0.000953386 -0.000957206 -0.000950255 -0.000953386 -0.000996964 -0.00100017 -0.000953386 -0.000957206 -0.00100017 -0.001004 -0.000992272 -0.000994347 -0.00103769 -0.00103976 -0.000994347 -0.000996964 -0.00103976 -0.00104234 -0.00103769 -0.00103976 -0.00108197 -0.00108395 -0.00103976 -0.00104234 -0.00108395 -0.0010864 -0.000996964 -0.00100017 -0.00104234 -0.00104546 -0.00100017 -0.001004 -0.00104546 -0.00104912 -0.00104234 -0.00104546 -0.0010864 -0.00108932 -0.00104546 -0.00104912 -0.00108932 -0.00109268 -0.000700585 -0.000700462 -0.000753963 -0.000755394 -0.000700462 -0.000700317 -0.000755394 -0.000757284 -0.000753963 -0.000755394 -0.000806768 -0.000809556 -0.000755394 -0.000757284 -0.000809556 -0.000813165 -0.000700317 -0.000700144 -0.000757284 -0.000759837 -0.000700144 -0.000699932 -0.000759837 -0.000763407 -0.000757284 -0.000759837 -0.000813165 -0.000817909 -0.000759837 -0.000763407 -0.000817909 -0.000824281 -0.000806768 -0.000809556 -0.000858465 -0.000862257 -0.000809556 -0.000813165 -0.000862257 -0.000867046 -0.000858465 -0.000862257 -0.000908678 -0.000913064 -0.000862257 -0.000867046 -0.000913064 -0.000918444 -0.000813165 -0.000817909 -0.000867046 -0.000873123 -0.000817909 -0.000824281 -0.000873123 -0.00088088 -0.000867046 -0.000873123 -0.000918444 -0.000925009 -0.000873123 -0.00088088 -0.000925009 -0.000932943 -0.000699932 -0.000699655 -0.000763407 -0.000768652 -0.000699655 -0.000699261 -0.000768652 -0.000777 -0.000763407 -0.000768652 -0.000824281 -0.000833079 -0.000768652 -0.000777 -0.000833079 -0.000845497 -0.000699261 -0.000698534 -0.000777 -0.000791709 -0.000698534 -0.00069753 -0.000791709 -0.0008238 -0.000777 -0.000791709 -0.000845497 -0.000863339 -0.000791709 -0.0008238 -0.000863339 -0.000882154 -0.000824281 -0.000833079 -0.00088088 -0.000890767 -0.000833079 -0.000845497 -0.000890767 -0.000903156 -0.00088088 -0.000890767 -0.000932943 -0.000942335 -0.000890767 -0.000903156 -0.000942335 -0.0009529 -0.000845497 -0.000863339 -0.000903156 -0.000917121 -0.000863339 -0.000882154 -0.000917121 -0.000931455 -0.000903156 -0.000917121 -0.0009529 -0.000963985 -0.000917121 -0.000931455 -0.000963985 -0.000974641 -0.000908678 -0.000913064 -0.000957206 -0.000961804 -0.000913064 -0.000918444 -0.000961804 -0.000967275 -0.000957206 -0.000961804 -0.001004 -0.00100851 -0.000961804 -0.000967275 -0.00100851 -0.00101372 -0.000918444 -0.000925009 -0.000967275 -0.000973695 -0.000925009 -0.000932943 -0.000973695 -0.000981078 -0.000967275 -0.000973695 -0.00101372 -0.00101961 -0.000973695 -0.000981078 -0.00101961 -0.00102611 -0.001004 -0.00100851 -0.00104912 -0.00105333 -0.00100851 -0.00101372 -0.00105333 -0.00105806 -0.00104912 -0.00105333 -0.00109268 -0.00109646 -0.00105333 -0.00105806 -0.00109646 -0.00110061 -0.00101372 -0.00101961 -0.00105806 -0.00106325 -0.00101961 -0.00102611 -0.00106325 -0.00106878 -0.00105806 -0.00106325 -0.00110061 -0.00110504 -0.00106325 -0.00106878 -0.00110504 -0.00110962 -0.000932943 -0.000942335 -0.000981078 -0.000989289 -0.000942335 -0.0009529 -0.000989289 -0.00099799 -0.000981078 -0.000989289 -0.00102611 -0.00103302 -0.000989289 -0.00099799 -0.00103302 -0.00104003 -0.0009529 -0.000963985 -0.00099799 -0.00100665 -0.000963985 -0.000974641 -0.00100665 -0.0010148 -0.00099799 -0.00100665 -0.00104003 -0.00104678 -0.00100665 -0.0010148 -0.00104678 -0.00105301 -0.00102611 -0.00103302 -0.00106878 -0.00107444 -0.00103302 -0.00104003 -0.00107444 -0.00108001 -0.00106878 -0.00107444 -0.00110962 -0.00111418 -0.00107444 -0.00108001 -0.00111418 -0.00111854 -0.00104003 -0.00104678 -0.00108001 -0.00108524 -0.00104678 -0.00105301 -0.00108524 -0.00108997 -0.00108001 -0.00108524 -0.00111854 -0.00112253 -0.00108524 -0.00108997 -0.00112253 -0.00112608 -0.00107854 -0.00107873 -0.0011219 -0.00112208 -0.00107873 -0.00107936 -0.00112208 -0.00112268 -0.0011219 -0.00112208 -0.00116426 -0.00116442 -0.00112208 -0.00112268 -0.00116442 -0.00116496 -0.00107936 -0.00108044 -0.00112268 -0.00112369 -0.00108044 -0.00108197 -0.00112369 -0.00112512 -0.00112268 -0.00112369 -0.00116496 -0.00116588 -0.00112369 -0.00112512 -0.00116588 -0.00116717 -0.00116426 -0.00116442 -0.00120563 -0.00120577 -0.00116442 -0.00116496 -0.00120577 -0.00120625 -0.00120563 -0.00120577 -0.00124607 -0.00124619 -0.00120577 -0.00120625 -0.00124619 -0.00124659 -0.00116496 -0.00116588 -0.00120625 -0.00120706 -0.00116588 -0.00116717 -0.00120706 -0.00120818 -0.00120625 -0.00120706 -0.00124659 -0.00124726 -0.00120706 -0.00120818 -0.00124726 -0.0012482 -0.00108197 -0.00108395 -0.00112512 -0.00112696 -0.00108395 -0.0010864 -0.00112696 -0.0011292 -0.00112512 -0.00112696 -0.00116717 -0.00116882 -0.00112696 -0.0011292 -0.00116882 -0.00117081 -0.0010864 -0.00108932 -0.0011292 -0.00113183 -0.00108932 -0.00109268 -0.00113183 -0.00113482 -0.0011292 -0.00113183 -0.00117081 -0.00117312 -0.00113183 -0.00113482 -0.00117312 -0.00117569 -0.00116717 -0.00116882 -0.00120818 -0.00120961 -0.00116882 -0.00117081 -0.00120961 -0.00121131 -0.00120818 -0.00120961 -0.0012482 -0.00124938 -0.00120961 -0.00121131 -0.00124938 -0.00125079 -0.00117081 -0.00117312 -0.00121131 -0.00121327 -0.00117312 -0.00117569 -0.00121327 -0.00121542 -0.00121131 -0.00121327 -0.00125079 -0.00125238 -0.00121327 -0.00121542 -0.00125238 -0.00125412 -0.00124607 -0.00124619 -0.00128564 -0.00128573 -0.00124619 -0.00124659 -0.00128573 -0.00128604 -0.00128564 -0.00128573 -0.00132441 -0.00132447 -0.00128573 -0.00128604 -0.00132447 -0.00132469 -0.00124659 -0.00124726 -0.00128604 -0.00128657 -0.00124726 -0.0012482 -0.00128657 -0.00128731 -0.00128604 -0.00128657 -0.00132469 -0.00132506 -0.00128657 -0.00128731 -0.00132506 -0.00132558 -0.00132441 -0.00132447 -0.0013625 -0.00136253 -0.00132447 -0.00132469 -0.00136253 -0.00136264 -0.0013625 -0.00136253 -0.0014 -0.0014 -0.00136253 -0.00136264 -0.0014 -0.0014 -0.00132469 -0.00132506 -0.00136264 -0.00136284 -0.00132506 -0.00132558 -0.00136284 -0.00136311 -0.00136264 -0.00136284 -0.0014 -0.0014 -0.00136284 -0.00136311 -0.0014 -0.0014 -0.0012482 -0.00124938 -0.00128731 -0.00128823 -0.00124938 -0.00125079 -0.00128823 -0.00128932 -0.00128731 -0.00128823 -0.00132558 -0.00132623 -0.00128823 -0.00128932 -0.00132623 -0.00132698 -0.00125079 -0.00125238 -0.00128932 -0.00129054 -0.00125238 -0.00125412 -0.00129054 -0.00129186 -0.00128932 -0.00129054 -0.00132698 -0.00132783 -0.00129054 -0.00129186 -0.00132783 -0.00132873 -0.00132558 -0.00132623 -0.00136311 -0.00136345 -0.00132623 -0.00132698 -0.00136345 -0.00136385 -0.00136311 -0.00136345 -0.0014 -0.0014 -0.00136345 -0.00136385 -0.0014 -0.0014 -0.00132698 -0.00132783 -0.00136385 -0.0013643 -0.00132783 -0.00132873 -0.0013643 -0.00136477 -0.00136385 -0.0013643 -0.0014 -0.0014 -0.0013643 -0.00136477 -0.0014 -0.0014 -0.00109268 -0.00109646 -0.00113482 -0.00113812 -0.00109646 -0.00110061 -0.00113812 -0.00114166 -0.00113482 -0.00113812 -0.00117569 -0.00117849 -0.00113812 -0.00114166 -0.00117849 -0.00118143 -0.00110061 -0.00110504 -0.00114166 -0.00114535 -0.00110504 -0.00110962 -0.00114535 -0.00114906 -0.00114166 -0.00114535 -0.00118143 -0.00118442 -0.00114535 -0.00114906 -0.00118442 -0.00118736 -0.00117569 -0.00117849 -0.00121542 -0.00121772 -0.00117849 -0.00118143 -0.00121772 -0.00122009 -0.00121542 -0.00121772 -0.00125412 -0.00125594 -0.00121772 -0.00122009 -0.00125594 -0.00125779 -0.00118143 -0.00118442 -0.00122009 -0.00122246 -0.00118442 -0.00118736 -0.00122246 -0.00122472 -0.00122009 -0.00122246 -0.00125779 -0.00125959 -0.00122246 -0.00122472 -0.00125959 -0.00126128 -0.00110962 -0.00111418 -0.00114906 -0.00115266 -0.00111418 -0.00111854 -0.00115266 -0.001156 -0.00114906 -0.00115266 -0.00118736 -0.00119014 -0.00115266 -0.001156 -0.00119014 -0.00119265 -0.00111854 -0.00112253 -0.001156 -0.00115899 -0.00112253 -0.00112608 -0.00115899 -0.00116157 -0.001156 -0.00115899 -0.00119265 -0.00119482 -0.00115899 -0.00116157 -0.00119482 -0.00119662 -0.00118736 -0.00119014 -0.00122472 -0.00122681 -0.00119014 -0.00119265 -0.00122681 -0.00122863 -0.00122472 -0.00122681 -0.00126128 -0.00126277 -0.00122681 -0.00122863 -0.00126277 -0.00126403 -0.00119265 -0.00119482 -0.00122863 -0.00123013 -0.00119482 -0.00119662 -0.00123013 -0.00123132 -0.00122863 -0.00123013 -0.00126403 -0.00126501 -0.00123013 -0.00123132 -0.00126501 -0.00126571 -0.00125412 -0.00125594 -0.00129186 -0.00129323 -0.00125594 -0.00125779 -0.00129323 -0.0012946 -0.00129186 -0.00129323 -0.00132873 -0.00132966 -0.00129323 -0.0012946 -0.00132966 -0.00133057 -0.00125779 -0.00125959 -0.0012946 -0.0012959 -0.00125959 -0.00126128 -0.0012959 -0.00129708 -0.0012946 -0.0012959 -0.00133057 -0.00133142 -0.0012959 -0.00129708 -0.00133142 -0.00133217 -0.00132873 -0.00132966 -0.00136477 -0.00136525 -0.00132966 -0.00133057 -0.00136525 -0.00136571 -0.00136477 -0.00136525 -0.0014 -0.0014 -0.00136525 -0.00136571 -0.0014 -0.0014 -0.00133057 -0.00133142 -0.00136571 -0.00136613 -0.00133142 -0.00133217 -0.00136613 -0.0013665 -0.00136571 -0.00136613 -0.0014 -0.0014 -0.00136613 -0.0013665 -0.0014 -0.0014 -0.00126128 -0.00126277 -0.00129708 -0.0012981 -0.00126277 -0.00126403 -0.0012981 -0.0012989 -0.00129708 -0.0012981 -0.00133217 -0.00133278 -0.0012981 -0.0012989 -0.00133278 -0.00133324 -0.00126403 -0.00126501 -0.0012989 -0.00129948 -0.00126501 -0.00126571 -0.00129948 -0.00129982 -0.0012989 -0.00129948 -0.00133324 -0.00133351 -0.00129948 -0.00129982 -0.00133351 -0.00133362 -0.00133217 -0.00133278 -0.0013665 -0.00136678 -0.00133278 -0.00133324 -0.00136678 -0.00136697 -0.0013665 -0.00136678 -0.0014 -0.0014 -0.00136678 -0.00136697 -0.0014 -0.0014 -0.00133324 -0.00133351 -0.00136697 -0.00136706 -0.00133351 -0.00133362 -0.00136706 -0.00136704 -0.00136697 -0.00136706 -0.0014 -0.0014 -0.00136706 -0.00136704 -0.0014 -0.0014 -0.00069753 -0.000804245 -0.0008238 -0.000849642 -0.000804245 -0.000867605 -0.000849642 -0.000885204 -0.0008238 -0.000849642 -0.000882154 -0.000901728 -0.000849642 -0.000885204 -0.000901728 -0.000920566 -0.000867605 -0.00091067 -0.000885204 -0.000918721 -0.00091067 -0.000943269 -0.000918721 -0.000947366 -0.000885204 -0.000918721 -0.000920566 -0.000942129 -0.000918721 -0.000947366 -0.000942129 -0.000963577 -0.000882154 -0.000901728 -0.000931455 -0.000944697 -0.000901728 -0.000920566 -0.000944697 -0.000958026 -0.000931455 -0.000944697 -0.000974641 -0.000984577 -0.000944697 -0.000958026 -0.000984577 -0.000994154 -0.000920566 -0.000942129 -0.000958026 -0.000972162 -0.000942129 -0.000963577 -0.000972162 -0.000987271 -0.000958026 -0.000972162 -0.000994154 -0.00100416 -0.000972162 -0.000987271 -0.00100416 -0.00101482 -0.000943269 -0.000969244 -0.000947366 -0.000971468 -0.000969244 -0.000990499 -0.000971468 -0.000991757 -0.000947366 -0.000971468 -0.000963577 -0.000983336 -0.000971468 -0.000991757 -0.000983336 -0.00100091 -0.000990499 -0.00100811 -0.000991757 -0.00100886 -0.00100811 -0.00102277 -0.00100886 -0.00102327 -0.000991757 -0.00100886 -0.00100091 -0.00101625 -0.00100886 -0.00102327 -0.00101625 -0.00102949 -0.000963577 -0.000983336 -0.000987271 -0.0010023 -0.000983336 -0.00100091 -0.0010023 -0.00101647 -0.000987271 -0.0010023 -0.00101482 -0.00102586 -0.0010023 -0.00101647 -0.00102586 -0.00103676 -0.00100091 -0.00101625 -0.00101647 -0.00102937 -0.00101625 -0.00102949 -0.00102937 -0.00104084 -0.00101647 -0.00102937 -0.00103676 -0.00104709 -0.00102937 -0.00104084 -0.00104709 -0.00105657 -0.000974641 -0.000984577 -0.0010148 -0.00102228 -0.000984577 -0.000994154 -0.00102228 -0.0010294 -0.0010148 -0.00102228 -0.00105301 -0.00105867 -0.00102228 -0.0010294 -0.00105867 -0.00106397 -0.000994154 -0.00100416 -0.0010294 -0.00103662 -0.00100416 -0.00101482 -0.00103662 -0.00104425 -0.0010294 -0.00103662 -0.00106397 -0.00106921 -0.00103662 -0.00104425 -0.00106921 -0.00107466 -0.00105301 -0.00105867 -0.00108997 -0.00109421 -0.00105867 -0.00106397 -0.00109421 -0.0010981 -0.00108997 -0.00109421 -0.00112608 -0.00112918 -0.00109421 -0.0010981 -0.00112918 -0.00113195 -0.00106397 -0.00106921 -0.0010981 -0.00110186 -0.00106921 -0.00107466 -0.00110186 -0.0011057 -0.0010981 -0.00110186 -0.00113195 -0.00113457 -0.00110186 -0.0011057 -0.00113457 -0.00113718 -0.00101482 -0.00102586 -0.00104425 -0.00105225 -0.00102586 -0.00103676 -0.00105225 -0.00106039 -0.00104425 -0.00105225 -0.00107466 -0.0010804 -0.00105225 -0.00106039 -0.0010804 -0.00108633 -0.00103676 -0.00104709 -0.00106039 -0.00106835 -0.00104709 -0.00105657 -0.00106835 -0.00107586 -0.00106039 -0.00106835 -0.00108633 -0.00109227 -0.00106835 -0.00107586 -0.00109227 -0.00109802 -0.00107466 -0.0010804 -0.0011057 -0.00110972 -0.0010804 -0.00108633 -0.00110972 -0.00111392 -0.0011057 -0.00110972 -0.00113718 -0.0011399 -0.00110972 -0.00111392 -0.0011399 -0.00114276 -0.00108633 -0.00109227 -0.00111392 -0.00111821 -0.00109227 -0.00109802 -0.00111821 -0.00112245 -0.00111392 -0.00111821 -0.00114276 -0.00114572 -0.00111821 -0.00112245 -0.00114572 -0.00114871 -0.00102277 -0.00103495 -0.00102327 -0.00103534 -0.00103495 -0.00104498 -0.00103534 -0.00104536 -0.00102327 -0.00103534 -0.00102949 -0.00104077 -0.00103534 -0.00104536 -0.00104077 -0.00105024 -0.00104498 -0.00105313 -0.00104536 -0.00105353 -0.00105313 -0.00105957 -0.00105353 -0.00106002 -0.00104536 -0.00105353 -0.00105024 -0.00105804 -0.00105353 -0.00106002 -0.00105804 -0.00106428 -0.00102949 -0.00104077 -0.00104084 -0.00105084 -0.00104077 -0.00105024 -0.00105084 -0.00105938 -0.00104084 -0.00105084 -0.00105657 -0.00106503 -0.00105084 -0.00105938 -0.00106503 -0.00107239 -0.00105024 -0.00105804 -0.00105938 -0.0010665 -0.00105804 -0.00106428 -0.0010665 -0.00107224 -0.00105938 -0.0010665 -0.00107239 -0.00107862 -0.0010665 -0.00107224 -0.00107862 -0.00108371 -0.00105957 -0.00106445 -0.00106002 -0.00106496 -0.00106445 -0.00106786 -0.00106496 -0.00106842 -0.00106002 -0.00106496 -0.00106428 -0.00106904 -0.00106496 -0.00106842 -0.00106904 -0.0010724 -0.00106786 -0.00106989 -0.00106842 -0.00107047 -0.00106989 -0.00107056 -0.00107047 -0.00107115 -0.00106842 -0.00107047 -0.0010724 -0.0010744 -0.00107047 -0.00107115 -0.0010744 -0.00107506 -0.00106428 -0.00106904 -0.00107224 -0.00107666 -0.00106904 -0.0010724 -0.00107666 -0.00107978 -0.00107224 -0.00107666 -0.00108371 -0.00108765 -0.00107666 -0.00107978 -0.00108765 -0.00109045 -0.0010724 -0.0010744 -0.00107978 -0.00108165 -0.0010744 -0.00107506 -0.00108165 -0.00108227 -0.00107978 -0.00108165 -0.00109045 -0.00109213 -0.00108165 -0.00108227 -0.00109213 -0.00109269 -0.00105657 -0.00106503 -0.00107586 -0.00108274 -0.00106503 -0.00107239 -0.00108274 -0.00108884 -0.00107586 -0.00108274 -0.00109802 -0.0011034 -0.00108274 -0.00108884 -0.0011034 -0.00110826 -0.00107239 -0.00107862 -0.00108884 -0.00109408 -0.00107862 -0.00108371 -0.00109408 -0.00109841 -0.00108884 -0.00109408 -0.00110826 -0.00111251 -0.00109408 -0.00109841 -0.00111251 -0.00111606 -0.00109802 -0.0011034 -0.00112245 -0.0011265 -0.0011034 -0.00110826 -0.0011265 -0.00113023 -0.00112245 -0.0011265 -0.00114871 -0.00115163 -0.0011265 -0.00113023 -0.00115163 -0.00115437 -0.00110826 -0.00111251 -0.00113023 -0.00113354 -0.00111251 -0.00111606 -0.00113354 -0.00113634 -0.00113023 -0.00113354 -0.00115437 -0.00115684 -0.00113354 -0.00113634 -0.00115684 -0.00115896 -0.00108371 -0.00108765 -0.00109841 -0.0011018 -0.00108765 -0.00109045 -0.0011018 -0.00110422 -0.00109841 -0.0011018 -0.00111606 -0.00111886 -0.0011018 -0.00110422 -0.00111886 -0.00112089 -0.00109045 -0.00109213 -0.00110422 -0.00110568 -0.00109213 -0.00109269 -0.00110568 -0.00110617 -0.00110422 -0.00110568 -0.00112089 -0.00112211 -0.00110568 -0.00110617 -0.00112211 -0.00112251 -0.00111606 -0.00111886 -0.00113634 -0.00113858 -0.00111886 -0.00112089 -0.00113858 -0.0011402 -0.00113634 -0.00113858 -0.00115896 -0.00116067 -0.00113858 -0.0011402 -0.00116067 -0.00116192 -0.00112089 -0.00112211 -0.0011402 -0.00114118 -0.00112211 -0.00112251 -0.00114118 -0.00114151 -0.0011402 -0.00114118 -0.00116192 -0.00116268 -0.00114118 -0.00114151 -0.00116268 -0.00116293 -0.00112608 -0.00112918 -0.00116157 -0.00116376 -0.00112918 -0.00113195 -0.00116376 -0.00116565 -0.00116157 -0.00116376 -0.00119662 -0.00119808 -0.00116376 -0.00116565 -0.00119808 -0.00119926 -0.00113195 -0.00113457 -0.00116565 -0.00116736 -0.00113457 -0.00113718 -0.00116736 -0.00116903 -0.00116565 -0.00116736 -0.00119926 -0.00120027 -0.00116736 -0.00116903 -0.00120027 -0.00120121 -0.00119662 -0.00119808 -0.00123132 -0.0012322 -0.00119808 -0.00119926 -0.0012322 -0.00123283 -0.00123132 -0.0012322 -0.00126571 -0.00126615 -0.0012322 -0.00123283 -0.00126615 -0.00126638 -0.00119926 -0.00120027 -0.00123283 -0.0012333 -0.00120027 -0.00120121 -0.0012333 -0.0012337 -0.00123283 -0.0012333 -0.00126638 -0.00126646 -0.0012333 -0.0012337 -0.00126646 -0.00126647 -0.00113718 -0.0011399 -0.00116903 -0.00117075 -0.0011399 -0.00114276 -0.00117075 -0.00117258 -0.00116903 -0.00117075 -0.00120121 -0.00120217 -0.00117075 -0.00117258 -0.00120217 -0.0012032 -0.00114276 -0.00114572 -0.00117258 -0.0011745 -0.00114572 -0.00114871 -0.0011745 -0.00117649 -0.00117258 -0.0011745 -0.0012032 -0.00120433 -0.0011745 -0.00117649 -0.00120433 -0.00120553 -0.00120121 -0.00120217 -0.0012337 -0.00123409 -0.00120217 -0.0012032 -0.00123409 -0.00123454 -0.0012337 -0.00123409 -0.00126647 -0.00126646 -0.00123409 -0.00123454 -0.00126646 -0.0012665 -0.0012