# vtk DataFile Version 3.0
#This file was generated by the deal.II library on 2018/7/10 at 10:47:04
ASCII
DATASET UNSTRUCTURED_GRID

POINTS 4096 double
0 0.5 0
0.03125 0.5 0
0 0.53125 0
0.03125 0.53125 0
0.03125 0.5 0
0.0625 0.5 0
0.03125 0.53125 0
0.0625 0.53125 0
0 0.53125 0
0.03125 0.53125 0
0 0.5625 0
0.03125 0.5625 0
0.03125 0.53125 0
0.0625 0.53125 0
0.03125 0.5625 0
0.0625 0.5625 0
0.0625 0.5 0
0.09375 0.5 0
0.0625 0.53125 0
0.09375 0.53125 0
0.09375 0.5 0
0.125 0.5 0
0.09375 0.53125 0
0.125 0.53125 0
0.0625 0.53125 0
0.09375 0.53125 0
0.0625 0.5625 0
0.09375 0.5625 0
0.09375 0.53125 0
0.125 0.53125 0
0.09375 0.5625 0
0.125 0.5625 0
0 0.5625 0
0.03125 0.5625 0
0 0.59375 0
0.03125 0.59375 0
0.03125 0.5625 0
0.0625 0.5625 0
0.03125 0.59375 0
0.0625 0.59375 0
0 0.59375 0
0.03125 0.59375 0
0 0.625 0
0.03125 0.625 0
0.03125 0.59375 0
0.0625 0.59375 0
0.03125 0.625 0
0.0625 0.625 0
0.0625 0.5625 0
0.09375 0.5625 0
0.0625 0.59375 0
0.09375 0.59375 0
0.09375 0.5625 0
0.125 0.5625 0
0.09375 0.59375 0
0.125 0.59375 0
0.0625 0.59375 0
0.09375 0.59375 0
0.0625 0.625 0
0.09375 0.625 0
0.09375 0.59375 0
0.125 0.59375 0
0.09375 0.625 0
0.125 0.625 0
0.125 0.5 0
0.15625 0.5 0
0.125 0.53125 0
0.15625 0.53125 0
0.15625 0.5 0
0.1875 0.5 0
0.15625 0.53125 0
0.1875 0.53125 0
0.125 0.53125 0
0.15625 0.53125 0
0.125 0.5625 0
0.15625 0.5625 0
0.15625 0.53125 0
0.1875 0.53125 0
0.15625 0.5625 0
0.1875 0.5625 0
0.1875 0.5 0
0.21875 0.5 0
0.1875 0.53125 0
0.21875 0.53125 0
0.21875 0.5 0
0.25 0.5 0
0.21875 0.53125 0
0.25 0.53125 0
0.1875 0.53125 0
0.21875 0.53125 0
0.1875 0.5625 0
0.21875 0.5625 0
0.21875 0.53125 0
0.25 0.53125 0
0.21875 0.5625 0
0.25 0.5625 0
0.125 0.5625 0
0.15625 0.5625 0
0.125 0.59375 0
0.15625 0.59375 0
0.15625 0.5625 0
0.1875 0.5625 0
0.15625 0.59375 0
0.1875 0.59375 0
0.125 0.59375 0
0.15625 0.59375 0
0.125 0.625 0
0.15625 0.625 0
0.15625 0.59375 0
0.1875 0.59375 0
0.15625 0.625 0
0.1875 0.625 0
0.1875 0.5625 0
0.21875 0.5625 0
0.1875 0.59375 0
0.21875 0.59375 0
0.21875 0.5625 0
0.25 0.5625 0
0.21875 0.59375 0
0.25 0.59375 0
0.1875 0.59375 0
0.21875 0.59375 0
0.1875 0.625 0
0.21875 0.625 0
0.21875 0.59375 0
0.25 0.59375 0
0.21875 0.625 0
0.25 0.625 0
0 0.625 0
0.03125 0.625 0
0 0.65625 0
0.03125 0.65625 0
0.03125 0.625 0
0.0625 0.625 0
0.03125 0.65625 0
0.0625 0.65625 0
0 0.65625 0
0.03125 0.65625 0
0 0.6875 0
0.03125 0.6875 0
0.03125 0.65625 0
0.0625 0.65625 0
0.03125 0.6875 0
0.0625 0.6875 0
0.0625 0.625 0
0.09375 0.625 0
0.0625 0.65625 0
0.09375 0.65625 0
0.09375 0.625 0
0.125 0.625 0
0.09375 0.65625 0
0.125 0.65625 0
0.0625 0.65625 0
0.09375 0.65625 0
0.0625 0.6875 0
0.09375 0.6875 0
0.09375 0.65625 0
0.125 0.65625 0
0.09375 0.6875 0
0.125 0.6875 0
0 0.6875 0
0.03125 0.6875 0
0 0.71875 0
0.03125 0.71875 0
0.03125 0.6875 0
0.0625 0.6875 0
0.03125 0.71875 0
0.0625 0.71875 0
0 0.71875 0
0.03125 0.71875 0
0 0.75 0
0.03125 0.75 0
0.03125 0.71875 0
0.0625 0.71875 0
0.03125 0.75 0
0.0625 0.75 0
0.0625 0.6875 0
0.09375 0.6875 0
0.0625 0.71875 0
0.09375 0.71875 0
0.09375 0.6875 0
0.125 0.6875 0
0.09375 0.71875 0
0.125 0.71875 0
0.0625 0.71875 0
0.09375 0.71875 0
0.0625 0.75 0
0.09375 0.75 0
0.09375 0.71875 0
0.125 0.71875 0
0.09375 0.75 0
0.125 0.75 0
0.125 0.625 0
0.15625 0.625 0
0.125 0.65625 0
0.15625 0.65625 0
0.15625 0.625 0
0.1875 0.625 0
0.15625 0.65625 0
0.1875 0.65625 0
0.125 0.65625 0
0.15625 0.65625 0
0.125 0.6875 0
0.15625 0.6875 0
0.15625 0.65625 0
0.1875 0.65625 0
0.15625 0.6875 0
0.1875 0.6875 0
0.1875 0.625 0
0.21875 0.625 0
0.1875 0.65625 0
0.21875 0.65625 0
0.21875 0.625 0
0.25 0.625 0
0.21875 0.65625 0
0.25 0.65625 0
0.1875 0.65625 0
0.21875 0.65625 0
0.1875 0.6875 0
0.21875 0.6875 0
0.21875 0.65625 0
0.25 0.65625 0
0.21875 0.6875 0
0.25 0.6875 0
0.125 0.6875 0
0.15625 0.6875 0
0.125 0.71875 0
0.15625 0.71875 0
0.15625 0.6875 0
0.1875 0.6875 0
0.15625 0.71875 0
0.1875 0.71875 0
0.125 0.71875 0
0.15625 0.71875 0
0.125 0.75 0
0.15625 0.75 0
0.15625 0.71875 0
0.1875 0.71875 0
0.15625 0.75 0
0.1875 0.75 0
0.1875 0.6875 0
0.21875 0.6875 0
0.1875 0.71875 0
0.21875 0.71875 0
0.21875 0.6875 0
0.25 0.6875 0
0.21875 0.71875 0
0.25 0.71875 0
0.1875 0.71875 0
0.21875 0.71875 0
0.1875 0.75 0
0.21875 0.75 0
0.21875 0.71875 0
0.25 0.71875 0
0.21875 0.75 0
0.25 0.75 0
0.25 0.5 0
0.28125 0.5 0
0.25 0.53125 0
0.28125 0.53125 0
0.28125 0.5 0
0.3125 0.5 0
0.28125 0.53125 0
0.3125 0.53125 0
0.25 0.53125 0
0.28125 0.53125 0
0.25 0.5625 0
0.28125 0.5625 0
0.28125 0.53125 0
0.3125 0.53125 0
0.28125 0.5625 0
0.3125 0.5625 0
0.3125 0.5 0
0.34375 0.5 0
0.3125 0.53125 0
0.34375 0.53125 0
0.34375 0.5 0
0.375 0.5 0
0.34375 0.53125 0
0.375 0.53125 0
0.3125 0.53125 0
0.34375 0.53125 0
0.3125 0.5625 0
0.34375 0.5625 0
0.34375 0.53125 0
0.375 0.53125 0
0.34375 0.5625 0
0.375 0.5625 0
0.25 0.5625 0
0.28125 0.5625 0
0.25 0.59375 0
0.28125 0.59375 0
0.28125 0.5625 0
0.3125 0.5625 0
0.28125 0.59375 0
0.3125 0.59375 0
0.25 0.59375 0
0.28125 0.59375 0
0.25 0.625 0
0.28125 0.625 0
0.28125 0.59375 0
0.3125 0.59375 0
0.28125 0.625 0
0.3125 0.625 0
0.3125 0.5625 0
0.34375 0.5625 0
0.3125 0.59375 0
0.34375 0.59375 0
0.34375 0.5625 0
0.375 0.5625 0
0.34375 0.59375 0
0.375 0.59375 0
0.3125 0.59375 0
0.34375 0.59375 0
0.3125 0.625 0
0.34375 0.625 0
0.34375 0.59375 0
0.375 0.59375 0
0.34375 0.625 0
0.375 0.625 0
0.375 0.5 0
0.40625 0.5 0
0.375 0.53125 0
0.40625 0.53125 0
0.40625 0.5 0
0.4375 0.5 0
0.40625 0.53125 0
0.4375 0.53125 0
0.375 0.53125 0
0.40625 0.53125 0
0.375 0.5625 0
0.40625 0.5625 0
0.40625 0.53125 0
0.4375 0.53125 0
0.40625 0.5625 0
0.4375 0.5625 0
0.4375 0.5 0
0.46875 0.5 0
0.4375 0.53125 0
0.46875 0.53125 0
0.46875 0.5 0
0.5 0.5 0
0.46875 0.53125 0
0.5 0.53125 0
0.4375 0.53125 0
0.46875 0.53125 0
0.4375 0.5625 0
0.46875 0.5625 0
0.46875 0.53125 0
0.5 0.53125 0
0.46875 0.5625 0
0.5 0.5625 0
0.375 0.5625 0
0.40625 0.5625 0
0.375 0.59375 0
0.40625 0.59375 0
0.40625 0.5625 0
0.4375 0.5625 0
0.40625 0.59375 0
0.4375 0.59375 0
0.375 0.59375 0
0.40625 0.59375 0
0.375 0.625 0
0.40625 0.625 0
0.40625 0.59375 0
0.4375 0.59375 0
0.40625 0.625 0
0.4375 0.625 0
0.4375 0.5625 0
0.46875 0.5625 0
0.4375 0.59375 0
0.46875 0.59375 0
0.46875 0.5625 0
0.5 0.5625 0
0.46875 0.59375 0
0.5 0.59375 0
0.4375 0.59375 0
0.46875 0.59375 0
0.4375 0.625 0
0.46875 0.625 0
0.46875 0.59375 0
0.5 0.59375 0
0.46875 0.625 0
0.5 0.625 0
0.25 0.625 0
0.28125 0.625 0
0.25 0.65625 0
0.28125 0.65625 0
0.28125 0.625 0
0.3125 0.625 0
0.28125 0.65625 0
0.3125 0.65625 0
0.25 0.65625 0
0.28125 0.65625 0
0.25 0.6875 0
0.28125 0.6875 0
0.28125 0.65625 0
0.3125 0.65625 0
0.28125 0.6875 0
0.3125 0.6875 0
0.3125 0.625 0
0.34375 0.625 0
0.3125 0.65625 0
0.34375 0.65625 0
0.34375 0.625 0
0.375 0.625 0
0.34375 0.65625 0
0.375 0.65625 0
0.3125 0.65625 0
0.34375 0.65625 0
0.3125 0.6875 0
0.34375 0.6875 0
0.34375 0.65625 0
0.375 0.65625 0
0.34375 0.6875 0
0.375 0.6875 0
0.25 0.6875 0
0.28125 0.6875 0
0.25 0.71875 0
0.28125 0.71875 0
0.28125 0.6875 0
0.3125 0.6875 0
0.28125 0.71875 0
0.3125 0.71875 0
0.25 0.71875 0
0.28125 0.71875 0
0.25 0.75 0
0.28125 0.75 0
0.28125 0.71875 0
0.3125 0.71875 0
0.28125 0.75 0
0.3125 0.75 0
0.3125 0.6875 0
0.34375 0.6875 0
0.3125 0.71875 0
0.34375 0.71875 0
0.34375 0.6875 0
0.375 0.6875 0
0.34375 0.71875 0
0.375 0.71875 0
0.3125 0.71875 0
0.34375 0.71875 0
0.3125 0.75 0
0.34375 0.75 0
0.34375 0.71875 0
0.375 0.71875 0
0.34375 0.75 0
0.375 0.75 0
0.375 0.625 0
0.40625 0.625 0
0.375 0.65625 0
0.40625 0.65625 0
0.40625 0.625 0
0.4375 0.625 0
0.40625 0.65625 0
0.4375 0.65625 0
0.375 0.65625 0
0.40625 0.65625 0
0.375 0.6875 0
0.40625 0.6875 0
0.40625 0.65625 0
0.4375 0.65625 0
0.40625 0.6875 0
0.4375 0.6875 0
0.4375 0.625 0
0.46875 0.625 0
0.4375 0.65625 0
0.46875 0.65625 0
0.46875 0.625 0
0.5 0.625 0
0.46875 0.65625 0
0.5 0.65625 0
0.4375 0.65625 0
0.46875 0.65625 0
0.4375 0.6875 0
0.46875 0.6875 0
0.46875 0.65625 0
0.5 0.65625 0
0.46875 0.6875 0
0.5 0.6875 0
0.375 0.6875 0
0.40625 0.6875 0
0.375 0.71875 0
0.40625 0.71875 0
0.40625 0.6875 0
0.4375 0.6875 0
0.40625 0.71875 0
0.4375 0.71875 0
0.375 0.71875 0
0.40625 0.71875 0
0.375 0.75 0
0.40625 0.75 0
0.40625 0.71875 0
0.4375 0.71875 0
0.40625 0.75 0
0.4375 0.75 0
0.4375 0.6875 0
0.46875 0.6875 0
0.4375 0.71875 0
0.46875 0.71875 0
0.46875 0.6875 0
0.5 0.6875 0
0.46875 0.71875 0
0.5 0.71875 0
0.4375 0.71875 0
0.46875 0.71875 0
0.4375 0.75 0
0.46875 0.75 0
0.46875 0.71875 0
0.5 0.71875 0
0.46875 0.75 0
0.5 0.75 0
0 0.75 0
0.03125 0.75 0
0 0.78125 0
0.03125 0.78125 0
0.03125 0.75 0
0.0625 0.75 0
0.03125 0.78125 0
0.0625 0.78125 0
0 0.78125 0
0.03125 0.78125 0
0 0.8125 0
0.03125 0.8125 0
0.03125 0.78125 0
0.0625 0.78125 0
0.03125 0.8125 0
0.0625 0.8125 0
0.0625 0.75 0
0.09375 0.75 0
0.0625 0.78125 0
0.09375 0.78125 0
0.09375 0.75 0
0.125 0.75 0
0.09375 0.78125 0
0.125 0.78125 0
0.0625 0.78125 0
0.09375 0.78125 0
0.0625 0.8125 0
0.09375 0.8125 0
0.09375 0.78125 0
0.125 0.78125 0
0.09375 0.8125 0
0.125 0.8125 0
0 0.8125 0
0.03125 0.8125 0
0 0.84375 0
0.03125 0.84375 0
0.03125 0.8125 0
0.0625 0.8125 0
0.03125 0.84375 0
0.0625 0.84375 0
0 0.84375 0
0.03125 0.84375 0
0 0.875 0
0.03125 0.875 0
0.03125 0.84375 0
0.0625 0.84375 0
0.03125 0.875 0
0.0625 0.875 0
0.0625 0.8125 0
0.09375 0.8125 0
0.0625 0.84375 0
0.09375 0.84375 0
0.09375 0.8125 0
0.125 0.8125 0
0.09375 0.84375 0
0.125 0.84375 0
0.0625 0.84375 0
0.09375 0.84375 0
0.0625 0.875 0
0.09375 0.875 0
0.09375 0.84375 0
0.125 0.84375 0
0.09375 0.875 0
0.125 0.875 0
0.125 0.75 0
0.15625 0.75 0
0.125 0.78125 0
0.15625 0.78125 0
0.15625 0.75 0
0.1875 0.75 0
0.15625 0.78125 0
0.1875 0.78125 0
0.125 0.78125 0
0.15625 0.78125 0
0.125 0.8125 0
0.15625 0.8125 0
0.15625 0.78125 0
0.1875 0.78125 0
0.15625 0.8125 0
0.1875 0.8125 0
0.1875 0.75 0
0.21875 0.75 0
0.1875 0.78125 0
0.21875 0.78125 0
0.21875 0.75 0
0.25 0.75 0
0.21875 0.78125 0
0.25 0.78125 0
0.1875 0.78125 0
0.21875 0.78125 0
0.1875 0.8125 0
0.21875 0.8125 0
0.21875 0.78125 0
0.25 0.78125 0
0.21875 0.8125 0
0.25 0.8125 0
0.125 0.8125 0
0.15625 0.8125 0
0.125 0.84375 0
0.15625 0.84375 0
0.15625 0.8125 0
[...]
POINT_DATA 4096
SCALARS State_InstatPDEProblemContainer_0 double 1
LOOKUP_TABLE default
-0.00207502 -0.00207381 -0.00221955 -0.00221853 -0.00207381 -0.0020727 -0.00221853 -0.00221793 -0.00221955 -0.00221853 -0.00236317 -0.00236233 -0.00221853 -0.00221793 -0.00236233 -0.00236222 -0.0020727 -0.00207167 -0.00221793 -0.00221777 -0.00207167 -0.00207072 -0.00221777 -0.00221805 -0.00221793 -0.00221777 -0.00236222 -0.00236286 -0.00221777 -0.00221805 -0.00236286 -0.0023643 -0.00236317 -0.00236233 -0.00250525 -0.00250459 -0.00236233 -0.00236222 -0.00250459 -0.00250491 -0.00250525 -0.00250459 -0.00264528 -0.00264477 -0.00250459 -0.00250491 -0.00264477 -0.00264544 -0.00236222 -0.00236286 -0.00250491 -0.00250624 -0.00236286 -0.0023643 -0.00250624 -0.00250866 -0.00250491 -0.00250624 -0.00264544 -0.00264732 -0.00250624 -0.00250866 -0.00264732 -0.00265048 -0.00207072 -0.00206982 -0.00221805 -0.00221884 -0.00206982 -0.00206898 -0.00221884 -0.0022202 -0.00221805 -0.00221884 -0.0023643 -0.00236662 -0.00221884 -0.0022202 -0.00236662 -0.00236996 -0.00206898 -0.00206819 -0.0022202 -0.00222222 -0.00206819 -0.00206744 -0.00222222 -0.00222509 -0.0022202 -0.00222222 -0.00236996 -0.00237451 -0.00222222 -0.00222509 -0.00237451 -0.00238055 -0.0023643 -0.00236662 -0.00250866 -0.00251226 -0.00236662 -0.00236996 -0.00251226 -0.00251722 -0.00250866 -0.00251226 -0.00265048 -0.00265504 -0.00251226 -0.00251722 -0.00265504 -0.00266115 -0.00236996 -0.00237451 -0.00251722 -0.00252376 -0.00237451 -0.00238055 -0.00252376 -0.00253221 -0.00251722 -0.00252376 -0.00266115 -0.00266905 -0.00252376 -0.00253221 -0.00266905 -0.00267902 -0.00264528 -0.00264477 -0.0027828 -0.00278244 -0.00264477 -0.00264544 -0.00278244 -0.00278336 -0.0027828 -0.00278244 -0.00291751 -0.00291724 -0.00278244 -0.00278336 -0.00291724 -0.00291833 -0.00264544 -0.00264732 -0.00278336 -0.00278562 -0.00264732 -0.00265048 -0.00278562 -0.00278927 -0.00278336 -0.00278562 -0.00291833 -0.0029208 -0.00278562 -0.00278927 -0.0029208 -0.0029247 -0.00291751 -0.00291724 -0.00304917 -0.00304898 -0.00291724 -0.00291833 -0.00304898 -0.00305014 -0.00304917 -0.00304898 -0.00317766 -0.00317751 -0.00304898 -0.00305014 -0.00317751 -0.00317867 -0.00291833 -0.0029208 -0.00305014 -0.00305267 -0.0029208 -0.0029247 -0.00305267 -0.00305661 -0.00305014 -0.00305267 -0.00317867 -0.00318113 -0.00305267 -0.00305661 -0.00318113 -0.00318493 -0.00265048 -0.00265504 -0.00278927 -0.00279443 -0.00265504 -0.00266115 -0.00279443 -0.00280122 -0.00278927 -0.00279443 -0.0029247 -0.00293012 -0.00279443 -0.00280122 -0.00293012 -0.00293715 -0.00266115 -0.00266905 -0.00280122 -0.00280983 -0.00266905 -0.00267902 -0.00280983 -0.00282046 -0.00280122 -0.00280983 -0.00293715 -0.0029459 -0.00280983 -0.00282046 -0.0029459 -0.00295651 -0.0029247 -0.00293012 -0.00305661 -0.003062 -0.00293012 -0.00293715 -0.003062 -0.0030689 -0.00305661 -0.003062 -0.00318493 -0.00319007 -0.003062 -0.0030689 -0.00319007 -0.00319656 -0.00293715 -0.0029459 -0.0030689 -0.00307735 -0.0029459 -0.00295651 -0.00307735 -0.0030874 -0.0030689 -0.00307735 -0.00319656 -0.00320441 -0.00307735 -0.0030874 -0.00320441 -0.00321356 -0.00206744 -0.00206672 -0.00222509 -0.00222903 -0.00206672 -0.00206604 -0.00222903 -0.00223443 -0.00222509 -0.00222903 -0.00238055 -0.00238847 -0.00222903 -0.00223443 -0.00238847 -0.00239888 -0.00206604 -0.00206539 -0.00223443 -0.00224188 -0.00206539 -0.00206472 -0.00224188 -0.00225243 -0.00223443 -0.00224188 -0.00239888 -0.00241268 -0.00224188 -0.00225243 -0.00241268 -0.00243128 -0.00238055 -0.00238847 -0.00253221 -0.002543 -0.00238847 -0.00239888 -0.002543 -0.00255674 -0.00253221 -0.002543 -0.00267902 -0.00269143 -0.002543 -0.00255674 -0.00269143 -0.00270674 -0.00239888 -0.00241268 -0.00255674 -0.00257426 -0.00241268 -0.00243128 -0.00257426 -0.00259664 -0.00255674 -0.00257426 -0.00270674 -0.00272549 -0.00257426 -0.00259664 -0.00272549 -0.00274815 -0.00206472 -0.00206402 -0.00225243 -0.00226802 -0.00206402 -0.00206314 -0.00226802 -0.00229282 -0.00225243 -0.00226802 -0.00243128 -0.00245697 -0.00226802 -0.00229282 -0.00245697 -0.00249306 -0.00206314 -0.00206172 -0.00229282 -0.00233612 -0.00206172 -0.00206015 -0.00233612 -0.00242907 -0.00229282 -0.00233612 -0.00249306 -0.00254453 -0.00233612 -0.00242907 -0.00254453 -0.00259849 -0.00243128 -0.00245697 -0.00259664 -0.00262513 -0.00245697 -0.00249306 -0.00262513 -0.00266068 -0.00259664 -0.00262513 -0.00274815 -0.00277493 -0.00262513 -0.00266068 -0.00277493 -0.002805 -0.00249306 -0.00254453 -0.00266068 -0.0027006 -0.00254453 -0.00259849 -0.0027006 -0.00274155 -0.00266068 -0.0027006 -0.002805 -0.0028365 -0.0027006 -0.00274155 -0.0028365 -0.00286679 -0.00267902 -0.00269143 -0.00282046 -0.00283338 -0.00269143 -0.00270674 -0.00283338 -0.00284882 -0.00282046 -0.00283338 -0.00295651 -0.00296907 -0.00283338 -0.00284882 -0.00296907 -0.00298364 -0.00270674 -0.00272549 -0.00284882 -0.00286699 -0.00272549 -0.00274815 -0.00286699 -0.00288789 -0.00284882 -0.00286699 -0.00298364 -0.00300019 -0.00286699 -0.00288789 -0.00300019 -0.00301843 -0.00295651 -0.00296907 -0.0030874 -0.00309903 -0.00296907 -0.00298364 -0.00309903 -0.00311217 -0.0030874 -0.00309903 -0.00321356 -0.00322393 -0.00309903 -0.00311217 -0.00322393 -0.00323536 -0.00298364 -0.00300019 -0.00311217 -0.00312661 -0.00300019 -0.00301843 -0.00312661 -0.00314201 -0.00311217 -0.00312661 -0.00323536 -0.0032476 -0.00312661 -0.00314201 -0.0032476 -0.00326026 -0.00274815 -0.00277493 -0.00288789 -0.00291111 -0.00277493 -0.002805 -0.00291111 -0.0029357 -0.00288789 -0.00291111 -0.00301843 -0.00303783 -0.00291111 -0.0029357 -0.00303783 -0.00305751 -0.002805 -0.0028365 -0.0029357 -0.00296016 -0.0028365 -0.00286679 -0.00296016 -0.0029832 -0.0029357 -0.00296016 -0.00305751 -0.00307647 -0.00296016 -0.0029832 -0.00307647 -0.00309398 -0.00301843 -0.00303783 -0.00314201 -0.00315781 -0.00303783 -0.00305751 -0.00315781 -0.00317333 -0.00314201 -0.00315781 -0.00326026 -0.00327287 -0.00315781 -0.00317333 -0.00327287 -0.00328492 -0.00305751 -0.00307647 -0.00317333 -0.0031879 -0.00307647 -0.00309398 -0.0031879 -0.00320111 -0.00317333 -0.0031879 -0.00328492 -0.00329597 -0.0031879 -0.00320111 -0.00329597 -0.00330576 -0.00317766 -0.00317751 -0.00330295 -0.00330282 -0.00317751 -0.00317867 -0.00330282 -0.00330391 -0.00330295 -0.00330282 -0.00342509 -0.00342496 -0.00330282 -0.00330391 -0.00342496 -0.00342593 -0.00317867 -0.00318113 -0.00330391 -0.00330622 -0.00318113 -0.00318493 -0.00330622 -0.00330973 -0.00330391 -0.00330622 -0.00342593 -0.003428 -0.00330622 -0.00330973 -0.003428 -0.00343114 -0.00342509 -0.00342496 -0.00354417 -0.00354403 -0.00342496 -0.00342593 -0.00354403 -0.00354485 -0.00354417 -0.00354403 -0.00366037 -0.00366019 -0.00354403 -0.00354485 -0.00366019 -0.00366083 -0.00342593 -0.003428 -0.00354485 -0.00354662 -0.003428 -0.00343114 -0.00354662 -0.00354933 -0.00354485 -0.00354662 -0.00366083 -0.00366227 -0.00354662 -0.00354933 -0.00366227 -0.0036645 -0.00318493 -0.00319007 -0.00330973 -0.00331445 -0.00319007 -0.00319656 -0.00331445 -0.00332035 -0.00330973 -0.00331445 -0.00343114 -0.00343533 -0.00331445 -0.00332035 -0.00343533 -0.00344052 -0.00319656 -0.00320441 -0.00332035 -0.00332738 -0.00320441 -0.00321356 -0.00332738 -0.00333545 -0.00332035 -0.00332738 -0.00344052 -0.00344662 -0.00332738 -0.00333545 -0.00344662 -0.00345353 -0.00343114 -0.00343533 -0.00354933 -0.00355292 -0.00343533 -0.00344052 -0.00355292 -0.00355733 -0.00354933 -0.00355292 -0.0036645 -0.00366744 -0.00355292 -0.00355733 -0.00366744 -0.00367105 -0.00344052 -0.00344662 -0.00355733 -0.00356246 -0.00344662 -0.00345353 -0.00356246 -0.00356819 -0.00355733 -0.00356246 -0.00367105 -0.0036752 -0.00356246 -0.00356819 -0.0036752 -0.00367979 -0.00366037 -0.00366019 -0.00377386 -0.00377364 -0.00366019 -0.00366083 -0.00377364 -0.00377408 -0.00377386 -0.00377364 -0.00388486 -0.00388459 -0.00377364 -0.00377408 -0.00388459 -0.00388482 -0.00366083 -0.00366227 -0.00377408 -0.00377517 -0.00366227 -0.0036645 -0.00377517 -0.00377688 -0.00377408 -0.00377517 -0.00388482 -0.00388554 -0.00377517 -0.00377688 -0.00388554 -0.00388672 -0.00388486 -0.00388459 -0.00399362 -0.00399327 -0.00388459 -0.00388482 -0.00399327 -0.00399333 -0.00399362 -0.00399327 -0.0041 -0.0041 -0.00399327 -0.00399333 -0.0041 -0.0041 -0.00388482 -0.00388554 -0.00399333 -0.0039937 -0.00388554 -0.00388672 -0.0039937 -0.00399432 -0.00399333 -0.0039937 -0.0041 -0.0041 -0.0039937 -0.00399432 -0.0041 -0.0041 -0.0036645 -0.00366744 -0.00377688 -0.00377916 -0.00366744 -0.00367105 -0.00377916 -0.00378193 -0.00377688 -0.00377916 -0.00388672 -0.00388831 -0.00377916 -0.00378193 -0.00388831 -0.00389023 -0.00367105 -0.0036752 -0.00378193 -0.00378512 -0.0036752 -0.00367979 -0.00378512 -0.00378859 -0.00378193 -0.00378512 -0.00389023 -0.00389242 -0.00378512 -0.00378859 -0.00389242 -0.00389479 -0.00388672 -0.00388831 -0.00399432 -0.00399516 -0.00388831 -0.00389023 -0.00399516 -0.00399617 -0.00399432 -0.00399516 -0.0041 -0.0041 -0.00399516 -0.00399617 -0.0041 -0.0041 -0.00389023 -0.00389242 -0.00399617 -0.00399733 -0.00389242 -0.00389479 -0.00399733 -0.00399856 -0.00399617 -0.00399733 -0.0041 -0.0041 -0.00399733 -0.00399856 -0.0041 -0.0041 -0.00321356 -0.00322393 -0.00333545 -0.00334442 -0.00322393 -0.00323536 -0.00334442 -0.00335409 -0.00333545 -0.00334442 -0.00345353 -0.00346107 -0.00334442 -0.00335409 -0.00346107 -0.00346904 -0.00323536 -0.0032476 -0.00335409 -0.00336419 -0.0032476 -0.00326026 -0.00336419 -0.00337437 -0.00335409 -0.00336419 -0.00346904 -0.00347717 -0.00336419 -0.00337437 -0.00347717 -0.00348517 -0.00345353 -0.00346107 -0.00356819 -0.00357435 -0.00346107 -0.00346904 -0.00357435 -0.00358074 -0.00356819 -0.00357435 -0.00367979 -0.00368464 -0.00357435 -0.00358074 -0.00368464 -0.00368959 -0.00346904 -0.00347717 -0.00358074 -0.00358712 -0.00347717 -0.00348517 -0.00358712 -0.00359323 -0.00358074 -0.00358712 -0.00368959 -0.00369442 -0.00358712 -0.00359323 -0.00369442 -0.00369893 -0.00326026 -0.00327287 -0.00337437 -0.00338424 -0.00327287 -0.00328492 -0.00338424 -0.00339342 -0.00337437 -0.00338424 -0.00348517 -0.00349272 -0.00338424 -0.00339342 -0.00349272 -0.00349953 -0.00328492 -0.00329597 -0.00339342 -0.0034016 -0.00329597 -0.00330576 -0.0034016 -0.00340865 -0.00339342 -0.0034016 -0.00349953 -0.0035054 -0.0034016 -0.00340865 -0.0035054 -0.00351024 -0.00348517 -0.00349272 -0.00359323 -0.00359884 -0.00349272 -0.00349953 -0.00359884 -0.00360371 -0.00359323 -0.00359884 -0.00369893 -0.00370292 -0.00359884 -0.00360371 -0.00370292 -0.00370624 -0.00349953 -0.0035054 -0.00360371 -0.00360772 -0.0035054 -0.00351024 -0.00360772 -0.00361083 -0.00360371 -0.00360772 -0.00370624 -0.00370879 -0.00360772 -0.00361083 -0.00370879 -0.00371055 -0.00367979 -0.00368464 -0.00378859 -0.00379221 -0.00368464 -0.00368959 -0.00379221 -0.00379584 -0.00378859 -0.00379221 -0.00389479 -0.00389724 -0.00379221 -0.00379584 -0.00389724 -0.00389965 -0.00368959 -0.00369442 -0.00379584 -0.00379931 -0.00369442 -0.00369893 -0.00379931 -0.00380245 -0.00379584 -0.00379931 -0.00389965 -0.0039019 -0.00379931 -0.00380245 -0.0039019 -0.00390388 -0.00389479 -0.00389724 -0.00399856 -0.00399983 -0.00389724 -0.00389965 -0.00399983 -0.00400105 -0.00399856 -0.00399983 -0.0041 -0.0041 -0.00399983 -0.00400105 -0.0041 -0.0041 -0.00389965 -0.0039019 -0.00400105 -0.00400218 -0.0039019 -0.00390388 -0.00400218 -0.00400313 -0.00400105 -0.00400218 -0.0041 -0.0041 -0.00400218 -0.00400313 -0.0041 -0.0041 -0.00369893 -0.00370292 -0.00380245 -0.00380513 -0.00370292 -0.00370624 -0.00380513 -0.00380722 -0.00380245 -0.00380513 -0.00390388 -0.00390548 -0.00380513 -0.00380722 -0.00390548 -0.00390663 -0.00370624 -0.00370879 -0.00380722 -0.00380866 -0.00370879 -0.00371055 -0.00380866 -0.00380944 -0.00380722 -0.00380866 -0.00390663 -0.00390729 -0.00380866 -0.00380944 -0.00390729 -0.00390745 -0.00390388 -0.00390548 -0.00400313 -0.00400386 -0.00390548 -0.00390663 -0.00400386 -0.00400433 -0.00400313 -0.00400386 -0.0041 -0.0041 -0.00400386 -0.00400433 -0.0041 -0.0041 -0.00390663 -0.00390729 -0.00400433 -0.0040045 -0.00390729 -0.00390745 -0.0040045 -0.0040044 -0.00400433 -0.0040045 -0.0041 -0.0041 -0.0040045 -0.0040044 -0.0041 -0.0041 -0.00206015 -0.0023708 -0.00242907 -0.00250353 -0.0023708 -0.00255509 -0.00250353 -0.00260652 -0.00242907 -0.00250353 -0.00259849 -0.0026548 -0.00250353 -0.00260652 -0.0026548 -0.00270916 -0.00255509 -0.00268004 -0.00260652 -0.00270354 -0.00268004 -0.00277445 -0.00270354 -0.00278641 -0.00260652 -0.00270354 -0.00270916 -0.00277145 -0.00270354 -0.00278641 -0.00277145 -0.00283342 -0.00259849 -0.0026548 -0.00274155 -0.00277945 -0.0026548 -0.00270916 -0.00277945 -0.00281777 -0.00274155 -0.00277945 -0.00286679 -0.0028951 -0.00277945 -0.00281777 -0.0028951 -0.0029225 -0.00270916 -0.00277145 -0.00281777 -0.00285849 -0.00277145 -0.00283342 -0.00285849 -0.00290207 -0.00281777 -0.00285849 -0.0029225 -0.00295123 -0.00285849 -0.00290207 -0.00295123 -0.00298188 -0.00277445 -0.00284958 -0.00278641 -0.00285608 -0.00284958 -0.00291099 -0.00285608 -0.00291469 -0.00278641 -0.00285608 -0.00283342 -0.00289049 -0.00285608 -0.00291469 -0.00289049 -0.00294122 -0.00291099 -0.00296183 -0.00291469 -0.00296407 -0.00296183 -0.00300412 -0.00296407 -0.00300564 -0.00291469 -0.00296407 -0.00294122 -0.0029855 -0.00296407 -0.00300564 -0.0029855 -0.00302367 -0.00283342 -0.00289049 -0.00290207 -0.00294541 -0.00289049 -0.00294122 -0.00294541 -0.00298628 -0.00290207 -0.00294541 -0.00298188 -0.00301367 -0.00294541 -0.00298628 -0.00301367 -0.00304507 -0.00294122 -0.0029855 -0.00298628 -0.0030235 -0.0029855 -0.00302367 -0.0030235 -0.00305658 -0.00298628 -0.0030235 -0.00304507 -0.00307483 -0.0030235 -0.00305658 -0.00307483 -0.00310212 -0.00286679 -0.0028951 -0.0029832 -0.00300441 -0.0028951 -0.0029225 -0.00300441 -0.00302467 -0.0029832 -0.00300441 -0.00309398 -0.00310992 -0.00300441 -0.00302467 -0.00310992 -0.00312488 -0.0029225 -0.00295123 -0.00302467 -0.00304529 -0.00295123 -0.00298188 -0.00304529 -0.00306715 -0.00302467 -0.00304529 -0.00312488 -0.00313977 -0.00304529 -0.00306715 -0.00313977 -0.00315531 -0.00309398 -0.00310992 -0.00320111 -0.00321295 -0.00310992 -0.00312488 -0.00321295 -0.00322384 -0.00320111 -0.00321295 -0.00330576 -0.00331433 -0.00321295 -0.00322384 -0.00331433 -0.00332202 -0.00312488 -0.00313977 -0.00322384 -0.00323443 -0.00313977 -0.00315531 -0.00323443 -0.00324529 -0.00322384 -0.00323443 -0.00332202 -0.00332929 -0.00323443 -0.00324529 -0.00332929 -0.00333661 -0.00298188 -0.00301367 -0.00306715 -0.00309012 -0.00301367 -0.00304507 -0.00309012 -0.00311351 -0.00306715 -0.00309012 -0.00315531 -0.00317171 -0.00309012 -0.00311351 -0.00317171 -0.00318869 -0.00304507 -0.00307483 -0.00311351 -0.0031364 -0.00307483 -0.00310212 -0.0031364 -0.00315802 -0.00311351 -0.0031364 -0.00318869 -0.00320573 -0.0031364 -0.00315802 -0.00320573 -0.00322223 -0.00315531 -0.00317171 -0.00324529 -0.00325673 -0.00317171 -0.00318869 -0.00325673 -0.00326871 -0.00324529 -0.00325673 -0.00333661 -0.00334427 -0.00325673 -0.00326871 -0.00334427 -0.00335236 -0.00318869 -0.00320573 -0.00326871 -0.00328095 -0.00320573 -0.00322223 -0.00328095 -0.00329307 -0.00326871 -0.00328095 -0.00335236 -0.00336078 -0.00328095 -0.00329307 -0.00336078 -0.00336928 -0.00300412 -0.00303922 -0.00300564 -0.00304045 -0.00303922 -0.00306814 -0.00304045 -0.00306932 -0.00300564 -0.00304045 -0.00302367 -0.00305619 -0.00304045 -0.00306932 -0.00305619 -0.0030835 -0.00306814 -0.00309159 -0.00306932 -0.00309286 -0.00309159 -0.00311013 -0.00309286 -0.00311155 -0.00306932 -0.00309286 -0.0030835 -0.00310597 -0.00309286 -0.00311155 -0.00310597 -0.00312393 -0.00302367 -0.00305619 -0.00305658 -0.00308539 -0.00305619 -0.0030835 -0.00308539 -0.00310998 -0.00305658 -0.00308539 -0.00310212 -0.00312649 -0.00308539 -0.00310998 -0.00312649 -0.00314769 -0.0030835 -0.00310597 -0.00310998 -0.00313048 -0.00310597 -0.00312393 -0.00313048 -0.00314701 -0.00310998 -0.00313048 -0.00314769 -0.00316562 -0.00313048 -0.00314701 -0.00316562 -0.00318023 -0.00311013 -0.00312416 -0.00311155 -0.00312574 -0.00312416 -0.00313398 -0.00312574 -0.0031357 -0.00311155 -0.00312574 -0.00312393 -0.00313765 -0.00312574 -0.0031357 -0.00313765 -0.0031473 -0.00313398 -0.00313979 -0.0031357 -0.0031416 -0.00313979 -0.00314171 -0.0031416 -0.00314355 -0.0031357 -0.0031416 -0.0031473 -0.00315303 -0.0031416 -0.00314355 -0.00315303 -0.00315492 -0.00312393 -0.00313765 -0.00314701 -0.00315972 -0.00313765 -0.0031473 -0.00315972 -0.00316871 -0.00314701 -0.00315972 -0.00318023 -0.00319155 -0.00315972 -0.00316871 -0.00319155 -0.0031996 -0.0031473 -0.00315303 -0.00316871 -0.00317405 -0.00315303 -0.00315492 -0.00317405 -0.00317581 -0.00316871 -0.00317405 -0.0031996 -0.0032044 -0.00317405 -0.00317581 -0.0032044 -0.00320597 -0.00310212 -0.00312649 -0.00315802 -0.0031778 -0.00312649 -0.00314769 -0.0031778 -0.00319535 -0.00315802 -0.0031778 -0.00322223 -0.00323767 -0.0031778 -0.00319535 -0.00323767 -0.00325163 -0.00314769 -0.00316562 -0.00319535 -0.00321041 -0.00316562 -0.00318023 -0.00321041 -0.00322284 -0.00319535 -0.00321041 -0.00325163 -0.00326381 -0.00321041 -0.00322284 -0.00326381 -0.00327398 -0.00322223 -0.00323767 -0.00329307 -0.00330465 -0.00323767 -0.00325163 -0.00330465 -0.00331533 -0.00329307 -0.00330465 -0.00336928 -0.00337758 -0.00330465 -0.00331533 -0.00337758 -0.00338537 -0.00325163 -0.00326381 -0.00331533 -0.00332478 -0.00326381 -0.00327398 -0.00332478 -0.00333278 -0.00331533 -0.00332478 -0.00338537 -0.00339239 -0.00332478 -0.00333278 -0.00339239 -0.0033984 -0.00318023 -0.00319155 -0.00322284 -0.00323255 -0.00319155 -0.0031996 -0.00323255 -0.00323949 -0.00322284 -0.00323255 -0.00327398 -0.003282 -0.00323255 -0.00323949 -0.003282 -0.00328776 -0.0031996 -0.0032044 -0.00323949 -0.00324364 -0.0032044 -0.00320597 -0.00324364 -0.00324498 -0.00323949 -0.00324364 -0.00328776 -0.0032912 -0.00324364 -0.00324498 -0.0032912 -0.0032923 -0.00327398 -0.003282 -0.00333278 -0.00333914 -0.003282 -0.00328776 -0.00333914 -0.00334373 -0.00333278 -0.00333914 -0.0033984 -0.00340322 -0.00333914 -0.00334373 -0.00340322 -0.00340672 -0.00328776 -0.0032912 -0.00334373 -0.00334647 -0.0032912 -0.0032923 -0.00334647 -0.00334731 -0.00334373 -0.00334647 -0.00340672 -0.0034088 -0.00334647 -0.00334731 -0.0034088 -0.00340939 -0.00330576 -0.00331433 -0.00340865 -0.00341462 -0.00331433 -0.00332202 -0.00341462 -0.00341976 -0.00340865 -0.00341462 -0.00351024 -0.00351413 -0.00341462 -0.00341976 -0.00351413 -0.00351727 -0.00332202 -0.00332929 -0.00341976 -0.00342444 -0.00332929 -0.00333661 -0.00342444 -0.00342903 -0.00341976 -0.00342444 -0.00351727 -0.00351994 -0.00342444 -0.00342903 -0.00351994 -0.00352245 -0.00351024 -0.00351413 -0.00361083 -0.00361309 -0.00351413 -0.00351727 -0.00361309 -0.00361468 -0.00361083 -0.00361309 -0.00371055 -0.00371159 -0.00361309 -0.00361468 -0.00371159 -0.00371204 -0.00351727 -0.00351994 -0.00361468 -0.00361582 -0.00351994 -0.00352245 -0.00361582 -0.00361677 -0.00361468 -0.00361582 -0.00371204 -0.00371209 -0.00361582 -0.00361677 -0.00371209 -0.00371194 -0.00333661 -0.00334427 -0.00342903 -0.00343381 -0.00334427 -0.00335236 -0.00343381 -0.0034389 -0.00342903 -0.00343381 -0.00352245 -0.00352503 -0.00343381 -0.0034389 -0.00352503 -0.00352785 -0.00335236 -0.00336078 -0.0034389 -0.00344431 -0.00336078 -0.00336928 -0.00344431 -0.00344991 -0.0034389 -0.00344431 -0.00352785 -0.00353094 -0.00344431 -0.00344991 -0.00353094 -0.00353427 -0.00352245 -0.00352503 -0.00361677 -0.00361773 -0.00352503 -0.00352785 -0.00361773 -0.00361887 -0.00361677 -0.00361773 -0.00371194 -0.00371178 -0.00361773 -0.00361887 -0.00371178 -0.00371175 -0.00352785 -0.00353094 -0.00361887 -0.00362025 -0.00353094 -0.00353427 -0.00362025 -0.00362187 -0.00361887 -0.00362025 -0.00371175 -0.00371194 -0.00362025 -0.00362187 -0.00371194 -0.00371236 -0.00371055 -0.00371159 -0.00380944 -0.00380964 -0.00371159 -0.00371204 -0.00380964 -0.00380934 -0.00380944 -0.00380964 -0.00390745 -0.00390717 -0.00380964 -0.00380934 -0.00390717 -0.00390653 -0.00371204 -0.00371209 -0.00380934 -0.00380871 -0.00371209 -0.00371194 -0