# vtk DataFile Version 3.0
#This file was generated by the deal.II library on 2018/7/10 at 10:47:04
ASCII
DATASET UNSTRUCTURED_GRID

POINTS 4096 double
0 0.5 0
0.03125 0.5 0
0 0.53125 0
0.03125 0.53125 0
0.03125 0.5 0
0.0625 0.5 0
0.03125 0.53125 0
0.0625 0.53125 0
0 0.53125 0
0.03125 0.53125 0
0 0.5625 0
0.03125 0.5625 0
0.03125 0.53125 0
0.0625 0.53125 0
0.03125 0.5625 0
0.0625 0.5625 0
0.0625 0.5 0
0.09375 0.5 0
0.0625 0.53125 0
0.09375 0.53125 0
0.09375 0.5 0
0.125 0.5 0
0.09375 0.53125 0
0.125 0.53125 0
0.0625 0.53125 0
0.09375 0.53125 0
0.0625 0.5625 0
0.09375 0.5625 0
0.09375 0.53125 0
0.125 0.53125 0
0.09375 0.5625 0
0.125 0.5625 0
0 0.5625 0
0.03125 0.5625 0
0 0.59375 0
0.03125 0.59375 0
0.03125 0.5625 0
0.0625 0.5625 0
0.03125 0.59375 0
0.0625 0.59375 0
0 0.59375 0
0.03125 0.59375 0
0 0.625 0
0.03125 0.625 0
0.03125 0.59375 0
0.0625 0.59375 0
0.03125 0.625 0
0.0625 0.625 0
0.0625 0.5625 0
0.09375 0.5625 0
0.0625 0.59375 0
0.09375 0.59375 0
0.09375 0.5625 0
0.125 0.5625 0
0.09375 0.59375 0
0.125 0.59375 0
0.0625 0.59375 0
0.09375 0.59375 0
0.0625 0.625 0
0.09375 0.625 0
0.09375 0.59375 0
0.125 0.59375 0
0.09375 0.625 0
0.125 0.625 0
0.125 0.5 0
0.15625 0.5 0
0.125 0.53125 0
0.15625 0.53125 0
0.15625 0.5 0
0.1875 0.5 0
0.15625 0.53125 0
0.1875 0.53125 0
0.125 0.53125 0
0.15625 0.53125 0
0.125 0.5625 0
0.15625 0.5625 0
0.15625 0.53125 0
0.1875 0.53125 0
0.15625 0.5625 0
0.1875 0.5625 0
0.1875 0.5 0
0.21875 0.5 0
0.1875 0.53125 0
0.21875 0.53125 0
0.21875 0.5 0
0.25 0.5 0
0.21875 0.53125 0
0.25 0.53125 0
0.1875 0.53125 0
0.21875 0.53125 0
0.1875 0.5625 0
0.21875 0.5625 0
0.21875 0.53125 0
0.25 0.53125 0
0.21875 0.5625 0
0.25 0.5625 0
0.125 0.5625 0
0.15625 0.5625 0
0.125 0.59375 0
0.15625 0.59375 0
0.15625 0.5625 0
0.1875 0.5625 0
0.15625 0.59375 0
0.1875 0.59375 0
0.125 0.59375 0
0.15625 0.59375 0
0.125 0.625 0
0.15625 0.625 0
0.15625 0.59375 0
0.1875 0.59375 0
0.15625 0.625 0
0.1875 0.625 0
0.1875 0.5625 0
0.21875 0.5625 0
0.1875 0.59375 0
0.21875 0.59375 0
0.21875 0.5625 0
0.25 0.5625 0
0.21875 0.59375 0
0.25 0.59375 0
0.1875 0.59375 0
0.21875 0.59375 0
0.1875 0.625 0
0.21875 0.625 0
0.21875 0.59375 0
0.25 0.59375 0
0.21875 0.625 0
0.25 0.625 0
0 0.625 0
0.03125 0.625 0
0 0.65625 0
0.03125 0.65625 0
0.03125 0.625 0
0.0625 0.625 0
0.03125 0.65625 0
0.0625 0.65625 0
0 0.65625 0
0.03125 0.65625 0
0 0.6875 0
0.03125 0.6875 0
0.03125 0.65625 0
0.0625 0.65625 0
0.03125 0.6875 0
0.0625 0.6875 0
0.0625 0.625 0
0.09375 0.625 0
0.0625 0.65625 0
0.09375 0.65625 0
0.09375 0.625 0
0.125 0.625 0
0.09375 0.65625 0
0.125 0.65625 0
0.0625 0.65625 0
0.09375 0.65625 0
0.0625 0.6875 0
0.09375 0.6875 0
0.09375 0.65625 0
0.125 0.65625 0
0.09375 0.6875 0
0.125 0.6875 0
0 0.6875 0
0.03125 0.6875 0
0 0.71875 0
0.03125 0.71875 0
0.03125 0.6875 0
0.0625 0.6875 0
0.03125 0.71875 0
0.0625 0.71875 0
0 0.71875 0
0.03125 0.71875 0
0 0.75 0
0.03125 0.75 0
0.03125 0.71875 0
0.0625 0.71875 0
0.03125 0.75 0
0.0625 0.75 0
0.0625 0.6875 0
0.09375 0.6875 0
0.0625 0.71875 0
0.09375 0.71875 0
0.09375 0.6875 0
0.125 0.6875 0
0.09375 0.71875 0
0.125 0.71875 0
0.0625 0.71875 0
0.09375 0.71875 0
0.0625 0.75 0
0.09375 0.75 0
0.09375 0.71875 0
0.125 0.71875 0
0.09375 0.75 0
0.125 0.75 0
0.125 0.625 0
0.15625 0.625 0
0.125 0.65625 0
0.15625 0.65625 0
0.15625 0.625 0
0.1875 0.625 0
0.15625 0.65625 0
0.1875 0.65625 0
0.125 0.65625 0
0.15625 0.65625 0
0.125 0.6875 0
0.15625 0.6875 0
0.15625 0.65625 0
0.1875 0.65625 0
0.15625 0.6875 0
0.1875 0.6875 0
0.1875 0.625 0
0.21875 0.625 0
0.1875 0.65625 0
0.21875 0.65625 0
0.21875 0.625 0
0.25 0.625 0
0.21875 0.65625 0
0.25 0.65625 0
0.1875 0.65625 0
0.21875 0.65625 0
0.1875 0.6875 0
0.21875 0.6875 0
0.21875 0.65625 0
0.25 0.65625 0
0.21875 0.6875 0
0.25 0.6875 0
0.125 0.6875 0
0.15625 0.6875 0
0.125 0.71875 0
0.15625 0.71875 0
0.15625 0.6875 0
0.1875 0.6875 0
0.15625 0.71875 0
0.1875 0.71875 0
0.125 0.71875 0
0.15625 0.71875 0
0.125 0.75 0
0.15625 0.75 0
0.15625 0.71875 0
0.1875 0.71875 0
0.15625 0.75 0
0.1875 0.75 0
0.1875 0.6875 0
0.21875 0.6875 0
0.1875 0.71875 0
0.21875 0.71875 0
0.21875 0.6875 0
0.25 0.6875 0
0.21875 0.71875 0
0.25 0.71875 0
0.1875 0.71875 0
0.21875 0.71875 0
0.1875 0.75 0
0.21875 0.75 0
0.21875 0.71875 0
0.25 0.71875 0
0.21875 0.75 0
0.25 0.75 0
0.25 0.5 0
0.28125 0.5 0
0.25 0.53125 0
0.28125 0.53125 0
0.28125 0.5 0
0.3125 0.5 0
0.28125 0.53125 0
0.3125 0.53125 0
0.25 0.53125 0
0.28125 0.53125 0
0.25 0.5625 0
0.28125 0.5625 0
0.28125 0.53125 0
0.3125 0.53125 0
0.28125 0.5625 0
0.3125 0.5625 0
0.3125 0.5 0
0.34375 0.5 0
0.3125 0.53125 0
0.34375 0.53125 0
0.34375 0.5 0
0.375 0.5 0
0.34375 0.53125 0
0.375 0.53125 0
0.3125 0.53125 0
0.34375 0.53125 0
0.3125 0.5625 0
0.34375 0.5625 0
0.34375 0.53125 0
0.375 0.53125 0
0.34375 0.5625 0
0.375 0.5625 0
0.25 0.5625 0
0.28125 0.5625 0
0.25 0.59375 0
0.28125 0.59375 0
0.28125 0.5625 0
0.3125 0.5625 0
0.28125 0.59375 0
0.3125 0.59375 0
0.25 0.59375 0
0.28125 0.59375 0
0.25 0.625 0
0.28125 0.625 0
0.28125 0.59375 0
0.3125 0.59375 0
0.28125 0.625 0
0.3125 0.625 0
0.3125 0.5625 0
0.34375 0.5625 0
0.3125 0.59375 0
0.34375 0.59375 0
0.34375 0.5625 0
0.375 0.5625 0
0.34375 0.59375 0
0.375 0.59375 0
0.3125 0.59375 0
0.34375 0.59375 0
0.3125 0.625 0
0.34375 0.625 0
0.34375 0.59375 0
0.375 0.59375 0
0.34375 0.625 0
0.375 0.625 0
0.375 0.5 0
0.40625 0.5 0
0.375 0.53125 0
0.40625 0.53125 0
0.40625 0.5 0
0.4375 0.5 0
0.40625 0.53125 0
0.4375 0.53125 0
0.375 0.53125 0
0.40625 0.53125 0
0.375 0.5625 0
0.40625 0.5625 0
0.40625 0.53125 0
0.4375 0.53125 0
0.40625 0.5625 0
0.4375 0.5625 0
0.4375 0.5 0
0.46875 0.5 0
0.4375 0.53125 0
0.46875 0.53125 0
0.46875 0.5 0
0.5 0.5 0
0.46875 0.53125 0
0.5 0.53125 0
0.4375 0.53125 0
0.46875 0.53125 0
0.4375 0.5625 0
0.46875 0.5625 0
0.46875 0.53125 0
0.5 0.53125 0
0.46875 0.5625 0
0.5 0.5625 0
0.375 0.5625 0
0.40625 0.5625 0
0.375 0.59375 0
0.40625 0.59375 0
0.40625 0.5625 0
0.4375 0.5625 0
0.40625 0.59375 0
0.4375 0.59375 0
0.375 0.59375 0
0.40625 0.59375 0
0.375 0.625 0
0.40625 0.625 0
0.40625 0.59375 0
0.4375 0.59375 0
0.40625 0.625 0
0.4375 0.625 0
0.4375 0.5625 0
0.46875 0.5625 0
0.4375 0.59375 0
0.46875 0.59375 0
0.46875 0.5625 0
0.5 0.5625 0
0.46875 0.59375 0
0.5 0.59375 0
0.4375 0.59375 0
0.46875 0.59375 0
0.4375 0.625 0
0.46875 0.625 0
0.46875 0.59375 0
0.5 0.59375 0
0.46875 0.625 0
0.5 0.625 0
0.25 0.625 0
0.28125 0.625 0
0.25 0.65625 0
0.28125 0.65625 0
0.28125 0.625 0
0.3125 0.625 0
0.28125 0.65625 0
0.3125 0.65625 0
0.25 0.65625 0
0.28125 0.65625 0
0.25 0.6875 0
0.28125 0.6875 0
0.28125 0.65625 0
0.3125 0.65625 0
0.28125 0.6875 0
0.3125 0.6875 0
0.3125 0.625 0
0.34375 0.625 0
0.3125 0.65625 0
0.34375 0.65625 0
0.34375 0.625 0
0.375 0.625 0
0.34375 0.65625 0
0.375 0.65625 0
0.3125 0.65625 0
0.34375 0.65625 0
0.3125 0.6875 0
0.34375 0.6875 0
0.34375 0.65625 0
0.375 0.65625 0
0.34375 0.6875 0
0.375 0.6875 0
0.25 0.6875 0
0.28125 0.6875 0
0.25 0.71875 0
0.28125 0.71875 0
0.28125 0.6875 0
0.3125 0.6875 0
0.28125 0.71875 0
0.3125 0.71875 0
0.25 0.71875 0
0.28125 0.71875 0
0.25 0.75 0
0.28125 0.75 0
0.28125 0.71875 0
0.3125 0.71875 0
0.28125 0.75 0
0.3125 0.75 0
0.3125 0.6875 0
0.34375 0.6875 0
0.3125 0.71875 0
0.34375 0.71875 0
0.34375 0.6875 0
0.375 0.6875 0
0.34375 0.71875 0
0.375 0.71875 0
0.3125 0.71875 0
0.34375 0.71875 0
0.3125 0.75 0
0.34375 0.75 0
0.34375 0.71875 0
0.375 0.71875 0
0.34375 0.75 0
0.375 0.75 0
0.375 0.625 0
0.40625 0.625 0
0.375 0.65625 0
0.40625 0.65625 0
0.40625 0.625 0
0.4375 0.625 0
0.40625 0.65625 0
0.4375 0.65625 0
0.375 0.65625 0
0.40625 0.65625 0
0.375 0.6875 0
0.40625 0.6875 0
0.40625 0.65625 0
0.4375 0.65625 0
0.40625 0.6875 0
0.4375 0.6875 0
0.4375 0.625 0
0.46875 0.625 0
0.4375 0.65625 0
0.46875 0.65625 0
0.46875 0.625 0
0.5 0.625 0
0.46875 0.65625 0
0.5 0.65625 0
0.4375 0.65625 0
0.46875 0.65625 0
0.4375 0.6875 0
0.46875 0.6875 0
0.46875 0.65625 0
0.5 0.65625 0
0.46875 0.6875 0
0.5 0.6875 0
0.375 0.6875 0
0.40625 0.6875 0
0.375 0.71875 0
0.40625 0.71875 0
0.40625 0.6875 0
0.4375 0.6875 0
0.40625 0.71875 0
0.4375 0.71875 0
0.375 0.71875 0
0.40625 0.71875 0
0.375 0.75 0
0.40625 0.75 0
0.40625 0.71875 0
0.4375 0.71875 0
0.40625 0.75 0
0.4375 0.75 0
0.4375 0.6875 0
0.46875 0.6875 0
0.4375 0.71875 0
0.46875 0.71875 0
0.46875 0.6875 0
0.5 0.6875 0
0.46875 0.71875 0
0.5 0.71875 0
0.4375 0.71875 0
0.46875 0.71875 0
0.4375 0.75 0
0.46875 0.75 0
0.46875 0.71875 0
0.5 0.71875 0
0.46875 0.75 0
0.5 0.75 0
0 0.75 0
0.03125 0.75 0
0 0.78125 0
0.03125 0.78125 0
0.03125 0.75 0
0.0625 0.75 0
0.03125 0.78125 0
0.0625 0.78125 0
0 0.78125 0
0.03125 0.78125 0
0 0.8125 0
0.03125 0.8125 0
0.03125 0.78125 0
0.0625 0.78125 0
0.03125 0.8125 0
0.0625 0.8125 0
0.0625 0.75 0
0.09375 0.75 0
0.0625 0.78125 0
0.09375 0.78125 0
0.09375 0.75 0
0.125 0.75 0
0.09375 0.78125 0
0.125 0.78125 0
0.0625 0.78125 0
0.09375 0.78125 0
0.0625 0.8125 0
0.09375 0.8125 0
0.09375 0.78125 0
0.125 0.78125 0
0.09375 0.8125 0
0.125 0.8125 0
0 0.8125 0
0.03125 0.8125 0
0 0.84375 0
0.03125 0.84375 0
0.03125 0.8125 0
0.0625 0.8125 0
0.03125 0.84375 0
0.0625 0.84375 0
0 0.84375 0
0.03125 0.84375 0
0 0.875 0
0.03125 0.875 0
0.03125 0.84375 0
0.0625 0.84375 0
0.03125 0.875 0
0.0625 0.875 0
0.0625 0.8125 0
0.09375 0.8125 0
0.0625 0.84375 0
0.09375 0.84375 0
0.09375 0.8125 0
0.125 0.8125 0
0.09375 0.84375 0
0.125 0.84375 0
0.0625 0.84375 0
0.09375 0.84375 0
0.0625 0.875 0
0.09375 0.875 0
0.09375 0.84375 0
0.125 0.84375 0
0.09375 0.875 0
0.125 0.875 0
0.125 0.75 0
0.15625 0.75 0
0.125 0.78125 0
0.15625 0.78125 0
0.15625 0.75 0
0.1875 0.75 0
0.15625 0.78125 0
0.1875 0.78125 0
0.125 0.78125 0
0.15625 0.78125 0
0.125 0.8125 0
0.15625 0.8125 0
0.15625 0.78125 0
0.1875 0.78125 0
0.15625 0.8125 0
0.1875 0.8125 0
0.1875 0.75 0
0.21875 0.75 0
0.1875 0.78125 0
0.21875 0.78125 0
0.21875 0.75 0
0.25 0.75 0
0.21875 0.78125 0
0.25 0.78125 0
0.1875 0.78125 0
0.21875 0.78125 0
0.1875 0.8125 0
0.21875 0.8125 0
0.21875 0.78125 0
0.25 0.78125 0
0.21875 0.8125 0
0.25 0.8125 0
0.125 0.8125 0
0.15625 0.8125 0
0.125 0.84375 0
0.15625 0.84375 0
0.15625 0.8125 0
[...]
POINT_DATA 4096
SCALARS State_InstatPDEProblemContainer_0 double 1
LOOKUP_TABLE default
-0.00202312 -0.00202202 -0.00216407 -0.00216314 -0.00202202 -0.00202101 -0.00216314 -0.00216262 -0.00216407 -0.00216314 -0.00230413 -0.00230339 -0.00216314 -0.00216262 -0.00230339 -0.00230334 -0.00202101 -0.00202006 -0.00216262 -0.00216252 -0.00202006 -0.00201918 -0.00216252 -0.00216285 -0.00216262 -0.00216252 -0.00230334 -0.00230401 -0.00216252 -0.00216285 -0.00230401 -0.00230547 -0.00230413 -0.00230339 -0.00244274 -0.00244216 -0.00230339 -0.00230334 -0.00244216 -0.00244253 -0.00244274 -0.00244216 -0.00257935 -0.00257893 -0.00244216 -0.00244253 -0.00257893 -0.00257963 -0.00230334 -0.00230401 -0.00244253 -0.00244388 -0.00230401 -0.00230547 -0.00244388 -0.00244628 -0.00244253 -0.00244388 -0.00257963 -0.00258151 -0.00244388 -0.00244628 -0.00258151 -0.00258464 -0.00201918 -0.00201836 -0.00216285 -0.00216366 -0.00201836 -0.00201758 -0.00216366 -0.00216502 -0.00216285 -0.00216366 -0.00230547 -0.00230778 -0.00216366 -0.00216502 -0.00230778 -0.00231107 -0.00201758 -0.00201685 -0.00216502 -0.00216703 -0.00201685 -0.00201615 -0.00216703 -0.00216985 -0.00216502 -0.00216703 -0.00231107 -0.00231554 -0.00216703 -0.00216985 -0.00231554 -0.00232145 -0.00230547 -0.00230778 -0.00244628 -0.00244983 -0.00230778 -0.00231107 -0.00244983 -0.0024547 -0.00244628 -0.00244983 -0.00258464 -0.00258912 -0.00244983 -0.0024547 -0.00258912 -0.00259512 -0.00231107 -0.00231554 -0.0024547 -0.00246111 -0.00231554 -0.00232145 -0.00246111 -0.00246938 -0.0024547 -0.00246111 -0.00259512 -0.00260286 -0.00246111 -0.00246938 -0.00260286 -0.00261261 -0.00257935 -0.00257893 -0.00271356 -0.00271326 -0.00257893 -0.00257963 -0.00271326 -0.00271422 -0.00271356 -0.00271326 -0.00284504 -0.00284483 -0.00271326 -0.00271422 -0.00284483 -0.00284594 -0.00257963 -0.00258151 -0.00271422 -0.00271646 -0.00258151 -0.00258464 -0.00271646 -0.00272007 -0.00271422 -0.00271646 -0.00284594 -0.0028484 -0.00271646 -0.00272007 -0.0028484 -0.00285225 -0.00284504 -0.00284483 -0.00297356 -0.00297343 -0.00284483 -0.00284594 -0.00297343 -0.0029746 -0.00297356 -0.00297343 -0.00309902 -0.00309892 -0.00297343 -0.0029746 -0.00309892 -0.00310009 -0.00284594 -0.0028484 -0.0029746 -0.00297712 -0.0028484 -0.00285225 -0.00297712 -0.002981 -0.0029746 -0.00297712 -0.00310009 -0.00310254 -0.00297712 -0.002981 -0.00310254 -0.00310628 -0.00258464 -0.00258912 -0.00272007 -0.00272514 -0.00258912 -0.00259512 -0.00272514 -0.0027318 -0.00272007 -0.00272514 -0.00285225 -0.00285757 -0.00272514 -0.0027318 -0.00285757 -0.00286447 -0.00259512 -0.00260286 -0.0027318 -0.00274023 -0.00260286 -0.00261261 -0.00274023 -0.00275064 -0.0027318 -0.00274023 -0.00286447 -0.00287305 -0.00274023 -0.00275064 -0.00287305 -0.00288343 -0.00285225 -0.00285757 -0.002981 -0.0029863 -0.00285757 -0.00286447 -0.0029863 -0.00299307 -0.002981 -0.0029863 -0.00310628 -0.00311134 -0.0029863 -0.00299307 -0.00311134 -0.00311771 -0.00286447 -0.00287305 -0.00299307 -0.00300136 -0.00287305 -0.00288343 -0.00300136 -0.0030112 -0.00299307 -0.00300136 -0.00311771 -0.0031254 -0.00300136 -0.0030112 -0.0031254 -0.00313437 -0.00201615 -0.00201548 -0.00216985 -0.00217372 -0.00201548 -0.00201483 -0.00217372 -0.00217899 -0.00216985 -0.00217372 -0.00232145 -0.00232919 -0.00217372 -0.00217899 -0.00232919 -0.00233935 -0.00201483 -0.0020142 -0.00217899 -0.00218626 -0.0020142 -0.00201356 -0.00218626 -0.00219655 -0.00217899 -0.00218626 -0.00233935 -0.00235282 -0.00218626 -0.00219655 -0.00235282 -0.00237098 -0.00232145 -0.00232919 -0.00246938 -0.00247992 -0.00232919 -0.00233935 -0.00247992 -0.00249334 -0.00246938 -0.00247992 -0.00261261 -0.00262474 -0.00247992 -0.00249334 -0.00262474 -0.00263971 -0.00233935 -0.00235282 -0.00249334 -0.00251045 -0.00235282 -0.00237098 -0.00251045 -0.00253231 -0.00249334 -0.00251045 -0.00263971 -0.00265803 -0.00251045 -0.00253231 -0.00265803 -0.00268017 -0.00201356 -0.00201286 -0.00219655 -0.00221175 -0.00201286 -0.00201197 -0.00221175 -0.00223592 -0.00219655 -0.00221175 -0.00237098 -0.00239604 -0.00221175 -0.00223592 -0.00239604 -0.00243127 -0.00201197 -0.00201053 -0.00223592 -0.00227814 -0.00201053 -0.0020089 -0.00227814 -0.00236887 -0.00223592 -0.00227814 -0.00243127 -0.00248152 -0.00227814 -0.00236887 -0.00248152 -0.00253423 -0.00237098 -0.00239604 -0.00253231 -0.00256012 -0.00239604 -0.00243127 -0.00256012 -0.00259485 -0.00253231 -0.00256012 -0.00268017 -0.00270634 -0.00256012 -0.00259485 -0.00270634 -0.00273572 -0.00243127 -0.00248152 -0.00259485 -0.00263386 -0.00248152 -0.00253423 -0.00263386 -0.00267387 -0.00259485 -0.00263386 -0.00273572 -0.00276651 -0.00263386 -0.00267387 -0.00276651 -0.00279611 -0.00261261 -0.00262474 -0.00275064 -0.00276328 -0.00262474 -0.00263971 -0.00276328 -0.00277838 -0.00275064 -0.00276328 -0.00288343 -0.00289572 -0.00276328 -0.00277838 -0.00289572 -0.00290998 -0.00263971 -0.00265803 -0.00277838 -0.00279614 -0.00265803 -0.00268017 -0.00279614 -0.00281657 -0.00277838 -0.00279614 -0.00290998 -0.00292616 -0.00279614 -0.00281657 -0.00292616 -0.00294401 -0.00288343 -0.00289572 -0.0030112 -0.00302259 -0.00289572 -0.00290998 -0.00302259 -0.00303544 -0.0030112 -0.00302259 -0.00313437 -0.00314453 -0.00302259 -0.00303544 -0.00314453 -0.00315572 -0.00290998 -0.00292616 -0.00303544 -0.00304958 -0.00292616 -0.00294401 -0.00304958 -0.00306465 -0.00303544 -0.00304958 -0.00315572 -0.0031677 -0.00304958 -0.00306465 -0.0031677 -0.00318009 -0.00268017 -0.00270634 -0.00281657 -0.00283927 -0.00270634 -0.00273572 -0.00283927 -0.00286331 -0.00281657 -0.00283927 -0.00294401 -0.00296298 -0.00283927 -0.00286331 -0.00296298 -0.00298222 -0.00273572 -0.00276651 -0.00286331 -0.00288723 -0.00276651 -0.00279611 -0.00288723 -0.00290976 -0.00286331 -0.00288723 -0.00298222 -0.00300077 -0.00288723 -0.00290976 -0.00300077 -0.00301789 -0.00294401 -0.00296298 -0.00306465 -0.0030801 -0.00296298 -0.00298222 -0.0030801 -0.00309529 -0.00306465 -0.0030801 -0.00318009 -0.00319244 -0.0030801 -0.00309529 -0.00319244 -0.00320424 -0.00298222 -0.00300077 -0.00309529 -0.00310955 -0.00300077 -0.00301789 -0.00310955 -0.00312248 -0.00309529 -0.00310955 -0.00320424 -0.00321505 -0.00310955 -0.00312248 -0.00321505 -0.00322464 -0.00309902 -0.00309892 -0.00322136 -0.00322128 -0.00309892 -0.00310009 -0.00322128 -0.00322238 -0.00322136 -0.00322128 -0.00334064 -0.00334055 -0.00322128 -0.00322238 -0.00334055 -0.00334154 -0.00310009 -0.00310254 -0.00322238 -0.00322467 -0.00310254 -0.00310628 -0.00322467 -0.00322814 -0.00322238 -0.00322467 -0.00334154 -0.00334359 -0.00322467 -0.00322814 -0.00334359 -0.00334669 -0.00334064 -0.00334055 -0.00345695 -0.00345685 -0.00334055 -0.00334154 -0.00345685 -0.00345768 -0.00345695 -0.00345685 -0.00357044 -0.0035703 -0.00345685 -0.00345768 -0.0035703 -0.00357096 -0.00334154 -0.00334359 -0.00345768 -0.00345944 -0.00334359 -0.00334669 -0.00345944 -0.00346211 -0.00345768 -0.00345944 -0.00357096 -0.0035724 -0.00345944 -0.00346211 -0.0035724 -0.00357459 -0.00310628 -0.00311134 -0.00322814 -0.00323278 -0.00311134 -0.00311771 -0.00323278 -0.00323858 -0.00322814 -0.00323278 -0.00334669 -0.00335082 -0.00323278 -0.00323858 -0.00335082 -0.00335591 -0.00311771 -0.0031254 -0.00323858 -0.00324547 -0.0031254 -0.00313437 -0.00324547 -0.00325338 -0.00323858 -0.00324547 -0.00335591 -0.0033619 -0.00324547 -0.00325338 -0.0033619 -0.00336867 -0.00334669 -0.00335082 -0.00346211 -0.00346565 -0.00335082 -0.00335591 -0.00346565 -0.00346998 -0.00346211 -0.00346565 -0.00357459 -0.0035775 -0.00346565 -0.00346998 -0.0035775 -0.00358104 -0.00335591 -0.0033619 -0.00346998 -0.00347502 -0.0033619 -0.00336867 -0.00347502 -0.00348064 -0.00346998 -0.00347502 -0.00358104 -0.00358512 -0.00347502 -0.00348064 -0.00358512 -0.00358962 -0.00357044 -0.0035703 -0.00368131 -0.00368112 -0.0035703 -0.00357096 -0.00368112 -0.00368158 -0.00368131 -0.00368112 -0.00378975 -0.00378952 -0.00368112 -0.00368158 -0.00378952 -0.00378976 -0.00357096 -0.0035724 -0.00368158 -0.00368267 -0.0035724 -0.00357459 -0.00368267 -0.00368436 -0.00368158 -0.00368267 -0.00378976 -0.00379049 -0.00368267 -0.00368436 -0.00379049 -0.00379166 -0.00378975 -0.00378952 -0.00389602 -0.0038957 -0.00378952 -0.00378976 -0.0038957 -0.00389578 -0.00389602 -0.0038957 -0.004 -0.004 -0.0038957 -0.00389578 -0.004 -0.004 -0.00378976 -0.00379049 -0.00389578 -0.00389615 -0.00379049 -0.00379166 -0.00389615 -0.00389676 -0.00389578 -0.00389615 -0.004 -0.004 -0.00389615 -0.00389676 -0.004 -0.004 -0.00357459 -0.0035775 -0.00368436 -0.00368661 -0.0035775 -0.00358104 -0.00368661 -0.00368934 -0.00368436 -0.00368661 -0.00379166 -0.00379322 -0.00368661 -0.00368934 -0.00379322 -0.00379511 -0.00358104 -0.00358512 -0.00368934 -0.00369246 -0.00358512 -0.00358962 -0.00369246 -0.00369587 -0.00368934 -0.00369246 -0.00379511 -0.00379726 -0.00369246 -0.00369587 -0.00379726 -0.00379959 -0.00379166 -0.00379322 -0.00389676 -0.00389759 -0.00379322 -0.00379511 -0.00389759 -0.00389859 -0.00389676 -0.00389759 -0.004 -0.004 -0.00389759 -0.00389859 -0.004 -0.004 -0.00379511 -0.00379726 -0.00389859 -0.00389972 -0.00379726 -0.00379959 -0.00389972 -0.00390093 -0.00389859 -0.00389972 -0.004 -0.004 -0.00389972 -0.00390093 -0.004 -0.004 -0.00313437 -0.00314453 -0.00325338 -0.00326217 -0.00314453 -0.00315572 -0.00326217 -0.00327164 -0.00325338 -0.00326217 -0.00336867 -0.00337606 -0.00326217 -0.00327164 -0.00337606 -0.00338387 -0.00315572 -0.0031677 -0.00327164 -0.00328153 -0.0031677 -0.00318009 -0.00328153 -0.0032915 -0.00327164 -0.00328153 -0.00338387 -0.00339184 -0.00328153 -0.0032915 -0.00339184 -0.00339968 -0.00336867 -0.00337606 -0.00348064 -0.00348668 -0.00337606 -0.00338387 -0.00348668 -0.00349294 -0.00348064 -0.00348668 -0.00358962 -0.00359438 -0.00348668 -0.00349294 -0.00359438 -0.00359922 -0.00338387 -0.00339184 -0.00349294 -0.00349919 -0.00339184 -0.00339968 -0.00349919 -0.00350518 -0.00349294 -0.00349919 -0.00359922 -0.00360396 -0.00349919 -0.00350518 -0.00360396 -0.00360838 -0.00318009 -0.00319244 -0.0032915 -0.00330116 -0.00319244 -0.00320424 -0.00330116 -0.00331015 -0.0032915 -0.00330116 -0.00339968 -0.00340707 -0.00330116 -0.00331015 -0.00340707 -0.00341375 -0.00320424 -0.00321505 -0.00331015 -0.00331817 -0.00321505 -0.00322464 -0.00331817 -0.00332508 -0.00331015 -0.00331817 -0.00341375 -0.0034195 -0.00331817 -0.00332508 -0.0034195 -0.00342426 -0.00339968 -0.00340707 -0.00350518 -0.00351068 -0.00340707 -0.00341375 -0.00351068 -0.00351546 -0.00350518 -0.00351068 -0.00360838 -0.0036123 -0.00351068 -0.00351546 -0.0036123 -0.00361555 -0.00341375 -0.0034195 -0.00351546 -0.0035194 -0.0034195 -0.00342426 -0.0035194 -0.00352245 -0.00351546 -0.0035194 -0.00361555 -0.00361806 -0.0035194 -0.00352245 -0.00361806 -0.0036198 -0.00358962 -0.00359438 -0.00369587 -0.00369942 -0.00359438 -0.00359922 -0.00369942 -0.00370298 -0.00369587 -0.00369942 -0.00379959 -0.00380199 -0.00369942 -0.00370298 -0.00380199 -0.00380435 -0.00359922 -0.00360396 -0.00370298 -0.00370638 -0.00360396 -0.00360838 -0.00370638 -0.00370946 -0.00370298 -0.00370638 -0.00380435 -0.00380655 -0.00370638 -0.00370946 -0.00380655 -0.00380849 -0.00379959 -0.00380199 -0.00390093 -0.00390217 -0.00380199 -0.00380435 -0.00390217 -0.00390337 -0.00390093 -0.00390217 -0.004 -0.004 -0.00390217 -0.00390337 -0.004 -0.004 -0.00380435 -0.00380655 -0.00390337 -0.00390447 -0.00380655 -0.00380849 -0.00390447 -0.00390541 -0.00390337 -0.00390447 -0.004 -0.004 -0.00390447 -0.00390541 -0.004 -0.004 -0.00360838 -0.0036123 -0.00370946 -0.00371209 -0.0036123 -0.00361555 -0.00371209 -0.00371414 -0.00370946 -0.00371209 -0.00380849 -0.00381007 -0.00371209 -0.00371414 -0.00381007 -0.0038112 -0.00361555 -0.00361806 -0.00371414 -0.00371556 -0.00361806 -0.0036198 -0.00371556 -0.00371635 -0.00371414 -0.00371556 -0.0038112 -0.00381185 -0.00371556 -0.00371635 -0.00381185 -0.00381202 -0.00380849 -0.00381007 -0.00390541 -0.00390613 -0.00381007 -0.0038112 -0.00390613 -0.00390659 -0.00390541 -0.00390613 -0.004 -0.004 -0.00390613 -0.00390659 -0.004 -0.004 -0.0038112 -0.00381185 -0.00390659 -0.00390677 -0.00381185 -0.00381202 -0.00390677 -0.00390667 -0.00390659 -0.00390677 -0.004 -0.004 -0.00390677 -0.00390667 -0.004 -0.004 -0.0020089 -0.00231208 -0.00236887 -0.00244158 -0.00231208 -0.00249194 -0.00244158 -0.00254212 -0.00236887 -0.00244158 -0.00253423 -0.00258922 -0.00244158 -0.00254212 -0.00258922 -0.0026423 -0.00249194 -0.00261391 -0.00254212 -0.00263683 -0.00261391 -0.00270607 -0.00263683 -0.00271774 -0.00254212 -0.00263683 -0.0026423 -0.00270313 -0.00263683 -0.00271774 -0.00270313 -0.00276362 -0.00253423 -0.00258922 -0.00267387 -0.0027109 -0.00258922 -0.0026423 -0.0027109 -0.00274832 -0.00267387 -0.0027109 -0.00279611 -0.00282379 -0.0027109 -0.00274832 -0.00282379 -0.00285055 -0.0026423 -0.00270313 -0.00274832 -0.00278809 -0.00270313 -0.00276362 -0.00278809 -0.00283064 -0.00274832 -0.00278809 -0.00285055 -0.00287862 -0.00278809 -0.00283064 -0.00287862 -0.00290855 -0.00270607 -0.00277942 -0.00271774 -0.00278576 -0.00277942 -0.00283937 -0.00278576 -0.00284298 -0.00271774 -0.00278576 -0.00276362 -0.00281935 -0.00278576 -0.00284298 -0.00281935 -0.00286888 -0.00283937 -0.00288902 -0.00284298 -0.0028912 -0.00288902 -0.00293031 -0.0028912 -0.00293179 -0.00284298 -0.0028912 -0.00286888 -0.00291212 -0.0028912 -0.00293179 -0.00291212 -0.00294939 -0.00276362 -0.00281935 -0.00283064 -0.00287296 -0.00281935 -0.00286888 -0.00287296 -0.00291287 -0.00283064 -0.00287296 -0.00290855 -0.0029396 -0.00287296 -0.00291287 -0.0029396 -0.00297026 -0.00286888 -0.00291212 -0.00291287 -0.00294921 -0.00291212 -0.00294939 -0.00294921 -0.00298151 -0.00291287 -0.00294921 -0.00297026 -0.00299932 -0.00294921 -0.00298151 -0.00299932 -0.00302598 -0.00279611 -0.00282379 -0.00290976 -0.00293048 -0.00282379 -0.00285055 -0.00293048 -0.00295029 -0.00290976 -0.00293048 -0.00301789 -0.00303349 -0.00293048 -0.00295029 -0.00303349 -0.00304811 -0.00285055 -0.00287862 -0.00295029 -0.00297044 -0.00287862 -0.00290855 -0.00297044 -0.00299179 -0.00295029 -0.00297044 -0.00304811 -0.00306267 -0.00297044 -0.00299179 -0.00306267 -0.00307786 -0.00301789 -0.00303349 -0.00312248 -0.00313406 -0.00303349 -0.00304811 -0.00313406 -0.00314472 -0.00312248 -0.00313406 -0.00322464 -0.00323304 -0.00313406 -0.00314472 -0.00323304 -0.00324056 -0.00304811 -0.00306267 -0.00314472 -0.00315508 -0.00306267 -0.00307786 -0.00315508 -0.0031657 -0.00314472 -0.00315508 -0.00324056 -0.00324768 -0.00315508 -0.0031657 -0.00324768 -0.00325484 -0.00290855 -0.0029396 -0.00299179 -0.00301423 -0.0029396 -0.00297026 -0.00301423 -0.00303708 -0.00299179 -0.00301423 -0.00307786 -0.00309388 -0.00301423 -0.00303708 -0.00309388 -0.00311047 -0.00297026 -0.00299932 -0.00303708 -0.00305943 -0.00299932 -0.00302598 -0.00305943 -0.00308055 -0.00303708 -0.00305943 -0.00311047 -0.00312711 -0.00305943 -0.00308055 -0.00312711 -0.00314323 -0.00307786 -0.00309388 -0.0031657 -0.00317688 -0.00309388 -0.00311047 -0.00317688 -0.00318858 -0.0031657 -0.00317688 -0.00325484 -0.00326233 -0.00317688 -0.00318858 -0.00326233 -0.00327025 -0.00311047 -0.00312711 -0.00318858 -0.00320055 -0.00312711 -0.00314323 -0.00320055 -0.00321239 -0.00318858 -0.00320055 -0.00327025 -0.00327847 -0.00320055 -0.00321239 -0.00327847 -0.00328678 -0.00293031 -0.00296459 -0.00293179 -0.00296578 -0.00296459 -0.00299282 -0.00296578 -0.00299397 -0.00293179 -0.00296578 -0.00294939 -0.00298115 -0.00296578 -0.00299397 -0.00298115 -0.00300781 -0.00299282 -0.00301573 -0.00299397 -0.00301696 -0.00301573 -0.00303383 -0.00301696 -0.00303521 -0.00299397 -0.00301696 -0.00300781 -0.00302976 -0.00301696 -0.00303521 -0.00302976 -0.0030473 -0.00294939 -0.00298115 -0.00298151 -0.00300965 -0.00298115 -0.00300781 -0.00300965 -0.00303367 -0.00298151 -0.00300965 -0.00302598 -0.00304978 -0.00300965 -0.00303367 -0.00304978 -0.00307048 -0.00300781 -0.00302976 -0.00303367 -0.00305368 -0.00302976 -0.0030473 -0.00305368 -0.00306983 -0.00303367 -0.00305368 -0.00307048 -0.00308798 -0.00305368 -0.00306983 -0.00308798 -0.00310226 -0.00303383 -0.00304753 -0.00303521 -0.00304907 -0.00304753 -0.00305713 -0.00304907 -0.0030588 -0.00303521 -0.00304907 -0.0030473 -0.00306069 -0.00304907 -0.0030588 -0.00306069 -0.00307012 -0.00305713 -0.0030628 -0.0030588 -0.00306456 -0.0030628 -0.00306468 -0.00306456 -0.00306647 -0.0030588 -0.00306456 -0.00307012 -0.00307572 -0.00306456 -0.00306647 -0.00307572 -0.00307757 -0.0030473 -0.00306069 -0.00306983 -0.00308224 -0.00306069 -0.00307012 -0.00308224 -0.00309101 -0.00306983 -0.00308224 -0.00310226 -0.00311332 -0.00308224 -0.00309101 -0.00311332 -0.00312118 -0.00307012 -0.00307572 -0.00309101 -0.00309624 -0.00307572 -0.00307757 -0.00309624 -0.00309796 -0.00309101 -0.00309624 -0.00312118 -0.00312586 -0.00309624 -0.00309796 -0.00312586 -0.0031274 -0.00302598 -0.00304978 -0.00308055 -0.00309987 -0.00304978 -0.00307048 -0.00309987 -0.003117 -0.00308055 -0.00309987 -0.00314323 -0.00315831 -0.00309987 -0.003117 -0.00315831 -0.00317195 -0.00307048 -0.00308798 -0.003117 -0.00313171 -0.00308798 -0.00310226 -0.00313171 -0.00314385 -0.003117 -0.00313171 -0.00317195 -0.00318384 -0.00313171 -0.00314385 -0.00318384 -0.00319378 -0.00314323 -0.00315831 -0.00321239 -0.0032237 -0.00315831 -0.00317195 -0.0032237 -0.00323413 -0.00321239 -0.0032237 -0.00328678 -0.00329489 -0.0032237 -0.00323413 -0.00329489 -0.0033025 -0.00317195 -0.00318384 -0.00323413 -0.00324336 -0.00318384 -0.00319378 -0.00324336 -0.00325118 -0.00323413 -0.00324336 -0.0033025 -0.00330936 -0.00324336 -0.00325118 -0.00330936 -0.00331523 -0.00310226 -0.00311332 -0.00314385 -0.00315334 -0.00311332 -0.00312118 -0.00315334 -0.00316012 -0.00314385 -0.00315334 -0.00319378 -0.00320161 -0.00315334 -0.00316012 -0.00320161 -0.00320724 -0.00312118 -0.00312586 -0.00316012 -0.00316417 -0.00312586 -0.0031274 -0.00316417 -0.00316548 -0.00316012 -0.00316417 -0.00320724 -0.00321061 -0.00316417 -0.00316548 -0.00321061 -0.00321167 -0.00319378 -0.00320161 -0.00325118 -0.00325739 -0.00320161 -0.00320724 -0.00325739 -0.00326188 -0.00325118 -0.00325739 -0.00331523 -0.00331995 -0.00325739 -0.00326188 -0.00331995 -0.00332337 -0.00320724 -0.00321061 -0.00326188 -0.00326456 -0.00321061 -0.00321167 -0.00326456 -0.00326538 -0.00326188 -0.00326456 -0.00332337 -0.0033254 -0.00326456 -0.00326538 -0.0033254 -0.00332599 -0.00322464 -0.00323304 -0.00332508 -0.00333093 -0.00323304 -0.00324056 -0.00333093 -0.00333598 -0.00332508 -0.00333093 -0.00342426 -0.00342808 -0.00333093 -0.00333598 -0.00342808 -0.00343116 -0.00324056 -0.00324768 -0.00333598 -0.00334057 -0.00324768 -0.00325484 -0.00334057 -0.00334506 -0.00333598 -0.00334057 -0.00343116 -0.00343379 -0.00334057 -0.00334506 -0.00343379 -0.00343625 -0.00342426 -0.00342808 -0.00352245 -0.00352468 -0.00342808 -0.00343116 -0.00352468 -0.00352625 -0.00352245 -0.00352468 -0.0036198 -0.00362083 -0.00352468 -0.00352625 -0.00362083 -0.00362129 -0.00343116 -0.00343379 -0.00352625 -0.00352738 -0.00343379 -0.00343625 -0.00352738 -0.00352832 -0.00352625 -0.00352738 -0.00362129 -0.00362135 -0.00352738 -0.00352832 -0.00362135 -0.00362122 -0.00325484 -0.00326233 -0.00334506 -0.00334974 -0.00326233 -0.00327025 -0.00334974 -0.00335472 -0.00334506 -0.00334974 -0.00343625 -0.00343878 -0.00334974 -0.00335472 -0.00343878 -0.00344154 -0.00327025 -0.00327847 -0.00335472 -0.00336001 -0.00327847 -0.00328678 -0.00336001 -0.00336549 -0.00335472 -0.00336001 -0.00344154 -0.00344457 -0.00336001 -0.00336549 -0.00344457 -0.00344783 -0.00343625 -0.00343878 -0.00352832 -0.00352927 -0.00343878 -0.00344154 -0.00352927 -0.00353038 -0.00352832 -0.00352927 -0.00362122 -0.00362107 -0.00352927 -0.00353038 -0.00362107 -0.00362105 -0.00344154 -0.00344457 -0.00353038 -0.00353174 -0.00344457 -0.00344783 -0.00353174 -0.00353334 -0.00353038 -0.00353174 -0.00362105 -0.00362124 -0.00353174 -0.00353334 -0.00362124 -0.00362166 -0.0036198 -0.00362083 -0.00371635 -0.00371654 -0.00362083 -0.00362129 -0.00371654 -0.00371627 -0.00371635 -0.00371654 -0.00381202 -0.00381176 -0.00371654 -0.00371627 -0.00381176 -0.00381114 -0.00362129 -0.00362135 -0.00371627 -0.00371567 -0.0