# vtk DataFile Version 3.0
#This file was generated by the deal.II library on 2018/7/10 at 10:46:56
ASCII
DATASET UNSTRUCTURED_GRID

POINTS 4096 double
0 0.5 0
0.03125 0.5 0
0 0.53125 0
0.03125 0.53125 0
0.03125 0.5 0
0.0625 0.5 0
0.03125 0.53125 0
0.0625 0.53125 0
0 0.53125 0
0.03125 0.53125 0
0 0.5625 0
0.03125 0.5625 0
0.03125 0.53125 0
0.0625 0.53125 0
0.03125 0.5625 0
0.0625 0.5625 0
0.0625 0.5 0
0.09375 0.5 0
0.0625 0.53125 0
0.09375 0.53125 0
0.09375 0.5 0
0.125 0.5 0
0.09375 0.53125 0
0.125 0.53125 0
0.0625 0.53125 0
0.09375 0.53125 0
0.0625 0.5625 0
0.09375 0.5625 0
0.09375 0.53125 0
0.125 0.53125 0
0.09375 0.5625 0
0.125 0.5625 0
0 0.5625 0
0.03125 0.5625 0
0 0.59375 0
0.03125 0.59375 0
0.03125 0.5625 0
0.0625 0.5625 0
0.03125 0.59375 0
0.0625 0.59375 0
0 0.59375 0
0.03125 0.59375 0
0 0.625 0
0.03125 0.625 0
0.03125 0.59375 0
0.0625 0.59375 0
0.03125 0.625 0
0.0625 0.625 0
0.0625 0.5625 0
0.09375 0.5625 0
0.0625 0.59375 0
0.09375 0.59375 0
0.09375 0.5625 0
0.125 0.5625 0
0.09375 0.59375 0
0.125 0.59375 0
0.0625 0.59375 0
0.09375 0.59375 0
0.0625 0.625 0
0.09375 0.625 0
0.09375 0.59375 0
0.125 0.59375 0
0.09375 0.625 0
0.125 0.625 0
0.125 0.5 0
0.15625 0.5 0
0.125 0.53125 0
0.15625 0.53125 0
0.15625 0.5 0
0.1875 0.5 0
0.15625 0.53125 0
0.1875 0.53125 0
0.125 0.53125 0
0.15625 0.53125 0
0.125 0.5625 0
0.15625 0.5625 0
0.15625 0.53125 0
0.1875 0.53125 0
0.15625 0.5625 0
0.1875 0.5625 0
0.1875 0.5 0
0.21875 0.5 0
0.1875 0.53125 0
0.21875 0.53125 0
0.21875 0.5 0
0.25 0.5 0
0.21875 0.53125 0
0.25 0.53125 0
0.1875 0.53125 0
0.21875 0.53125 0
0.1875 0.5625 0
0.21875 0.5625 0
0.21875 0.53125 0
0.25 0.53125 0
0.21875 0.5625 0
0.25 0.5625 0
0.125 0.5625 0
0.15625 0.5625 0
0.125 0.59375 0
0.15625 0.59375 0
0.15625 0.5625 0
0.1875 0.5625 0
0.15625 0.59375 0
0.1875 0.59375 0
0.125 0.59375 0
0.15625 0.59375 0
0.125 0.625 0
0.15625 0.625 0
0.15625 0.59375 0
0.1875 0.59375 0
0.15625 0.625 0
0.1875 0.625 0
0.1875 0.5625 0
0.21875 0.5625 0
0.1875 0.59375 0
0.21875 0.59375 0
0.21875 0.5625 0
0.25 0.5625 0
0.21875 0.59375 0
0.25 0.59375 0
0.1875 0.59375 0
0.21875 0.59375 0
0.1875 0.625 0
0.21875 0.625 0
0.21875 0.59375 0
0.25 0.59375 0
0.21875 0.625 0
0.25 0.625 0
0 0.625 0
0.03125 0.625 0
0 0.65625 0
0.03125 0.65625 0
0.03125 0.625 0
0.0625 0.625 0
0.03125 0.65625 0
0.0625 0.65625 0
0 0.65625 0
0.03125 0.65625 0
0 0.6875 0
0.03125 0.6875 0
0.03125 0.65625 0
0.0625 0.65625 0
0.03125 0.6875 0
0.0625 0.6875 0
0.0625 0.625 0
0.09375 0.625 0
0.0625 0.65625 0
0.09375 0.65625 0
0.09375 0.625 0
0.125 0.625 0
0.09375 0.65625 0
0.125 0.65625 0
0.0625 0.65625 0
0.09375 0.65625 0
0.0625 0.6875 0
0.09375 0.6875 0
0.09375 0.65625 0
0.125 0.65625 0
0.09375 0.6875 0
0.125 0.6875 0
0 0.6875 0
0.03125 0.6875 0
0 0.71875 0
0.03125 0.71875 0
0.03125 0.6875 0
0.0625 0.6875 0
0.03125 0.71875 0
0.0625 0.71875 0
0 0.71875 0
0.03125 0.71875 0
0 0.75 0
0.03125 0.75 0
0.03125 0.71875 0
0.0625 0.71875 0
0.03125 0.75 0
0.0625 0.75 0
0.0625 0.6875 0
0.09375 0.6875 0
0.0625 0.71875 0
0.09375 0.71875 0
0.09375 0.6875 0
0.125 0.6875 0
0.09375 0.71875 0
0.125 0.71875 0
0.0625 0.71875 0
0.09375 0.71875 0
0.0625 0.75 0
0.09375 0.75 0
0.09375 0.71875 0
0.125 0.71875 0
0.09375 0.75 0
0.125 0.75 0
0.125 0.625 0
0.15625 0.625 0
0.125 0.65625 0
0.15625 0.65625 0
0.15625 0.625 0
0.1875 0.625 0
0.15625 0.65625 0
0.1875 0.65625 0
0.125 0.65625 0
0.15625 0.65625 0
0.125 0.6875 0
0.15625 0.6875 0
0.15625 0.65625 0
0.1875 0.65625 0
0.15625 0.6875 0
0.1875 0.6875 0
0.1875 0.625 0
0.21875 0.625 0
0.1875 0.65625 0
0.21875 0.65625 0
0.21875 0.625 0
0.25 0.625 0
0.21875 0.65625 0
0.25 0.65625 0
0.1875 0.65625 0
0.21875 0.65625 0
0.1875 0.6875 0
0.21875 0.6875 0
0.21875 0.65625 0
0.25 0.65625 0
0.21875 0.6875 0
0.25 0.6875 0
0.125 0.6875 0
0.15625 0.6875 0
0.125 0.71875 0
0.15625 0.71875 0
0.15625 0.6875 0
0.1875 0.6875 0
0.15625 0.71875 0
0.1875 0.71875 0
0.125 0.71875 0
0.15625 0.71875 0
0.125 0.75 0
0.15625 0.75 0
0.15625 0.71875 0
0.1875 0.71875 0
0.15625 0.75 0
0.1875 0.75 0
0.1875 0.6875 0
0.21875 0.6875 0
0.1875 0.71875 0
0.21875 0.71875 0
0.21875 0.6875 0
0.25 0.6875 0
0.21875 0.71875 0
0.25 0.71875 0
0.1875 0.71875 0
0.21875 0.71875 0
0.1875 0.75 0
0.21875 0.75 0
0.21875 0.71875 0
0.25 0.71875 0
0.21875 0.75 0
0.25 0.75 0
0.25 0.5 0
0.28125 0.5 0
0.25 0.53125 0
0.28125 0.53125 0
0.28125 0.5 0
0.3125 0.5 0
0.28125 0.53125 0
0.3125 0.53125 0
0.25 0.53125 0
0.28125 0.53125 0
0.25 0.5625 0
0.28125 0.5625 0
0.28125 0.53125 0
0.3125 0.53125 0
0.28125 0.5625 0
0.3125 0.5625 0
0.3125 0.5 0
0.34375 0.5 0
0.3125 0.53125 0
0.34375 0.53125 0
0.34375 0.5 0
0.375 0.5 0
0.34375 0.53125 0
0.375 0.53125 0
0.3125 0.53125 0
0.34375 0.53125 0
0.3125 0.5625 0
0.34375 0.5625 0
0.34375 0.53125 0
0.375 0.53125 0
0.34375 0.5625 0
0.375 0.5625 0
0.25 0.5625 0
0.28125 0.5625 0
0.25 0.59375 0
0.28125 0.59375 0
0.28125 0.5625 0
0.3125 0.5625 0
0.28125 0.59375 0
0.3125 0.59375 0
0.25 0.59375 0
0.28125 0.59375 0
0.25 0.625 0
0.28125 0.625 0
0.28125 0.59375 0
0.3125 0.59375 0
0.28125 0.625 0
0.3125 0.625 0
0.3125 0.5625 0
0.34375 0.5625 0
0.3125 0.59375 0
0.34375 0.59375 0
0.34375 0.5625 0
0.375 0.5625 0
0.34375 0.59375 0
0.375 0.59375 0
0.3125 0.59375 0
0.34375 0.59375 0
0.3125 0.625 0
0.34375 0.625 0
0.34375 0.59375 0
0.375 0.59375 0
0.34375 0.625 0
0.375 0.625 0
0.375 0.5 0
0.40625 0.5 0
0.375 0.53125 0
0.40625 0.53125 0
0.40625 0.5 0
0.4375 0.5 0
0.40625 0.53125 0
0.4375 0.53125 0
0.375 0.53125 0
0.40625 0.53125 0
0.375 0.5625 0
0.40625 0.5625 0
0.40625 0.53125 0
0.4375 0.53125 0
0.40625 0.5625 0
0.4375 0.5625 0
0.4375 0.5 0
0.46875 0.5 0
0.4375 0.53125 0
0.46875 0.53125 0
0.46875 0.5 0
0.5 0.5 0
0.46875 0.53125 0
0.5 0.53125 0
0.4375 0.53125 0
0.46875 0.53125 0
0.4375 0.5625 0
0.46875 0.5625 0
0.46875 0.53125 0
0.5 0.53125 0
0.46875 0.5625 0
0.5 0.5625 0
0.375 0.5625 0
0.40625 0.5625 0
0.375 0.59375 0
0.40625 0.59375 0
0.40625 0.5625 0
0.4375 0.5625 0
0.40625 0.59375 0
0.4375 0.59375 0
0.375 0.59375 0
0.40625 0.59375 0
0.375 0.625 0
0.40625 0.625 0
0.40625 0.59375 0
0.4375 0.59375 0
0.40625 0.625 0
0.4375 0.625 0
0.4375 0.5625 0
0.46875 0.5625 0
0.4375 0.59375 0
0.46875 0.59375 0
0.46875 0.5625 0
0.5 0.5625 0
0.46875 0.59375 0
0.5 0.59375 0
0.4375 0.59375 0
0.46875 0.59375 0
0.4375 0.625 0
0.46875 0.625 0
0.46875 0.59375 0
0.5 0.59375 0
0.46875 0.625 0
0.5 0.625 0
0.25 0.625 0
0.28125 0.625 0
0.25 0.65625 0
0.28125 0.65625 0
0.28125 0.625 0
0.3125 0.625 0
0.28125 0.65625 0
0.3125 0.65625 0
0.25 0.65625 0
0.28125 0.65625 0
0.25 0.6875 0
0.28125 0.6875 0
0.28125 0.65625 0
0.3125 0.65625 0
0.28125 0.6875 0
0.3125 0.6875 0
0.3125 0.625 0
0.34375 0.625 0
0.3125 0.65625 0
0.34375 0.65625 0
0.34375 0.625 0
0.375 0.625 0
0.34375 0.65625 0
0.375 0.65625 0
0.3125 0.65625 0
0.34375 0.65625 0
0.3125 0.6875 0
0.34375 0.6875 0
0.34375 0.65625 0
0.375 0.65625 0
0.34375 0.6875 0
0.375 0.6875 0
0.25 0.6875 0
0.28125 0.6875 0
0.25 0.71875 0
0.28125 0.71875 0
0.28125 0.6875 0
0.3125 0.6875 0
0.28125 0.71875 0
0.3125 0.71875 0
0.25 0.71875 0
0.28125 0.71875 0
0.25 0.75 0
0.28125 0.75 0
0.28125 0.71875 0
0.3125 0.71875 0
0.28125 0.75 0
0.3125 0.75 0
0.3125 0.6875 0
0.34375 0.6875 0
0.3125 0.71875 0
0.34375 0.71875 0
0.34375 0.6875 0
0.375 0.6875 0
0.34375 0.71875 0
0.375 0.71875 0
0.3125 0.71875 0
0.34375 0.71875 0
0.3125 0.75 0
0.34375 0.75 0
0.34375 0.71875 0
0.375 0.71875 0
0.34375 0.75 0
0.375 0.75 0
0.375 0.625 0
0.40625 0.625 0
0.375 0.65625 0
0.40625 0.65625 0
0.40625 0.625 0
0.4375 0.625 0
0.40625 0.65625 0
0.4375 0.65625 0
0.375 0.65625 0
0.40625 0.65625 0
0.375 0.6875 0
0.40625 0.6875 0
0.40625 0.65625 0
0.4375 0.65625 0
0.40625 0.6875 0
0.4375 0.6875 0
0.4375 0.625 0
0.46875 0.625 0
0.4375 0.65625 0
0.46875 0.65625 0
0.46875 0.625 0
0.5 0.625 0
0.46875 0.65625 0
0.5 0.65625 0
0.4375 0.65625 0
0.46875 0.65625 0
0.4375 0.6875 0
0.46875 0.6875 0
0.46875 0.65625 0
0.5 0.65625 0
0.46875 0.6875 0
0.5 0.6875 0
0.375 0.6875 0
0.40625 0.6875 0
0.375 0.71875 0
0.40625 0.71875 0
0.40625 0.6875 0
0.4375 0.6875 0
0.40625 0.71875 0
0.4375 0.71875 0
0.375 0.71875 0
0.40625 0.71875 0
0.375 0.75 0
0.40625 0.75 0
0.40625 0.71875 0
0.4375 0.71875 0
0.40625 0.75 0
0.4375 0.75 0
0.4375 0.6875 0
0.46875 0.6875 0
0.4375 0.71875 0
0.46875 0.71875 0
0.46875 0.6875 0
0.5 0.6875 0
0.46875 0.71875 0
0.5 0.71875 0
0.4375 0.71875 0
0.46875 0.71875 0
0.4375 0.75 0
0.46875 0.75 0
0.46875 0.71875 0
0.5 0.71875 0
0.46875 0.75 0
0.5 0.75 0
0 0.75 0
0.03125 0.75 0
0 0.78125 0
0.03125 0.78125 0
0.03125 0.75 0
0.0625 0.75 0
0.03125 0.78125 0
0.0625 0.78125 0
0 0.78125 0
0.03125 0.78125 0
0 0.8125 0
0.03125 0.8125 0
0.03125 0.78125 0
0.0625 0.78125 0
0.03125 0.8125 0
0.0625 0.8125 0
0.0625 0.75 0
0.09375 0.75 0
0.0625 0.78125 0
0.09375 0.78125 0
0.09375 0.75 0
0.125 0.75 0
0.09375 0.78125 0
0.125 0.78125 0
0.0625 0.78125 0
0.09375 0.78125 0
0.0625 0.8125 0
0.09375 0.8125 0
0.09375 0.78125 0
0.125 0.78125 0
0.09375 0.8125 0
0.125 0.8125 0
0 0.8125 0
0.03125 0.8125 0
0 0.84375 0
0.03125 0.84375 0
0.03125 0.8125 0
0.0625 0.8125 0
0.03125 0.84375 0
0.0625 0.84375 0
0 0.84375 0
0.03125 0.84375 0
0 0.875 0
0.03125 0.875 0
0.03125 0.84375 0
0.0625 0.84375 0
0.03125 0.875 0
0.0625 0.875 0
0.0625 0.8125 0
0.09375 0.8125 0
0.0625 0.84375 0
0.09375 0.84375 0
0.09375 0.8125 0
0.125 0.8125 0
0.09375 0.84375 0
0.125 0.84375 0
0.0625 0.84375 0
0.09375 0.84375 0
0.0625 0.875 0
0.09375 0.875 0
0.09375 0.84375 0
0.125 0.84375 0
0.09375 0.875 0
0.125 0.875 0
0.125 0.75 0
0.15625 0.75 0
0.125 0.78125 0
0.15625 0.78125 0
0.15625 0.75 0
0.1875 0.75 0
0.15625 0.78125 0
0.1875 0.78125 0
0.125 0.78125 0
0.15625 0.78125 0
0.125 0.8125 0
0.15625 0.8125 0
0.15625 0.78125 0
0.1875 0.78125 0
0.15625 0.8125 0
0.1875 0.8125 0
0.1875 0.75 0
0.21875 0.75 0
0.1875 0.78125 0
0.21875 0.78125 0
0.21875 0.75 0
0.25 0.75 0
0.21875 0.78125 0
0.25 0.78125 0
0.1875 0.78125 0
0.21875 0.78125 0
0.1875 0.8125 0
0.21875 0.8125 0
0.21875 0.78125 0
0.25 0.78125 0
0.21875 0.8125 0
0.25 0.8125 0
0.125 0.8125 0
0.15625 0.8125 0
0.125 0.84375 0
0.15625 0.84375 0
0.15625 0.8125 0
[...]
POINT_DATA 4096
SCALARS State_InstatPDEProblemContainer_0 double 1
LOOKUP_TABLE default
-0.00110402 -0.00110384 -0.00118118 -0.00118108 -0.00110384 -0.00110366 -0.00118108 -0.00118117 -0.00118118 -0.00118108 -0.00125799 -0.00125798 -0.00118108 -0.00118117 -0.00125798 -0.00125831 -0.00110366 -0.00110349 -0.00118117 -0.00118144 -0.00110349 -0.00110331 -0.00118144 -0.0011819 -0.00118117 -0.00118144 -0.00125831 -0.00125899 -0.00118144 -0.0011819 -0.00125899 -0.00126006 -0.00125799 -0.00125798 -0.00133413 -0.0013342 -0.00125798 -0.00125831 -0.0013342 -0.00133475 -0.00133413 -0.0013342 -0.00140934 -0.00140947 -0.0013342 -0.00133475 -0.00140947 -0.00141019 -0.00125831 -0.00125899 -0.00133475 -0.00133579 -0.00125899 -0.00126006 -0.00133579 -0.00133738 -0.00133475 -0.00133579 -0.00141019 -0.00141152 -0.00133579 -0.00133738 -0.00141152 -0.00141351 -0.00110331 -0.00110312 -0.0011819 -0.0011826 -0.00110312 -0.00110293 -0.0011826 -0.00118356 -0.0011819 -0.0011826 -0.00126006 -0.00126157 -0.0011826 -0.00118356 -0.00126157 -0.00126358 -0.00110293 -0.00110273 -0.00118356 -0.00118484 -0.00110273 -0.00110252 -0.00118484 -0.00118653 -0.00118356 -0.00118484 -0.00126358 -0.00126621 -0.00118484 -0.00118653 -0.00126621 -0.00126959 -0.00126006 -0.00126157 -0.00133738 -0.00133957 -0.00126157 -0.00126358 -0.00133957 -0.00134246 -0.00133738 -0.00133957 -0.00141351 -0.00141621 -0.00133957 -0.00134246 -0.00141621 -0.00141973 -0.00126358 -0.00126621 -0.00134246 -0.00134616 -0.00126621 -0.00126959 -0.00134616 -0.00135085 -0.00134246 -0.00134616 -0.00141973 -0.00142418 -0.00134616 -0.00135085 -0.00142418 -0.00142973 -0.00140934 -0.00140947 -0.00148337 -0.00148355 -0.00140947 -0.00141019 -0.00148355 -0.00148439 -0.00148337 -0.00148355 -0.00155604 -0.00155624 -0.00148355 -0.00148439 -0.00155624 -0.00155716 -0.00141019 -0.00141152 -0.00148439 -0.00148592 -0.00141152 -0.00141351 -0.00148592 -0.00148817 -0.00148439 -0.00148592 -0.00155716 -0.0015588 -0.00148592 -0.00148817 -0.0015588 -0.00156119 -0.00155604 -0.00155624 -0.0016272 -0.00162743 -0.00155624 -0.00155716 -0.00162743 -0.00162836 -0.0016272 -0.00162743 -0.00169679 -0.00169701 -0.00162743 -0.00162836 -0.00169701 -0.00169793 -0.00155716 -0.0015588 -0.00162836 -0.00163003 -0.0015588 -0.00156119 -0.00163003 -0.00163244 -0.00162836 -0.00163003 -0.00169793 -0.00169956 -0.00163003 -0.00163244 -0.00169956 -0.00170189 -0.00141351 -0.00141621 -0.00148817 -0.00149121 -0.00141621 -0.00141973 -0.00149121 -0.00149511 -0.00148817 -0.00149121 -0.00156119 -0.00156438 -0.00149121 -0.00149511 -0.00156438 -0.00156843 -0.00141973 -0.00142418 -0.00149511 -0.00149998 -0.00142418 -0.00142973 -0.00149998 -0.00150592 -0.00149511 -0.00149998 -0.00156843 -0.00157339 -0.00149998 -0.00150592 -0.00157339 -0.00157935 -0.00156119 -0.00156438 -0.00163244 -0.00163563 -0.00156438 -0.00156843 -0.00163563 -0.00163962 -0.00163244 -0.00163563 -0.00170189 -0.00170494 -0.00163563 -0.00163962 -0.00170494 -0.00170872 -0.00156843 -0.00157339 -0.00163962 -0.00164444 -0.00157339 -0.00157935 -0.00164444 -0.00165013 -0.00163962 -0.00164444 -0.00170872 -0.00171322 -0.00164444 -0.00165013 -0.00171322 -0.00171843 -0.00110252 -0.00110229 -0.00118653 -0.00118875 -0.00110229 -0.00110203 -0.00118875 -0.00119171 -0.00118653 -0.00118875 -0.00126959 -0.00127394 -0.00118875 -0.00119171 -0.00127394 -0.0012796 -0.00110203 -0.00110174 -0.00119171 -0.00119571 -0.00110174 -0.00110141 -0.00119571 -0.00120133 -0.00119171 -0.00119571 -0.0012796 -0.00128704 -0.00119571 -0.00120133 -0.00128704 -0.00129705 -0.00126959 -0.00127394 -0.00135085 -0.00135678 -0.00127394 -0.0012796 -0.00135678 -0.00136427 -0.00135085 -0.00135678 -0.00142973 -0.00143658 -0.00135678 -0.00136427 -0.00143658 -0.00144499 -0.0012796 -0.00128704 -0.00136427 -0.0013738 -0.00128704 -0.00129705 -0.0013738 -0.00138595 -0.00136427 -0.0013738 -0.00144499 -0.00145526 -0.0013738 -0.00138595 -0.00145526 -0.00146767 -0.00110141 -0.00110098 -0.00120133 -0.0012096 -0.00110098 -0.00110038 -0.0012096 -0.00122275 -0.00120133 -0.0012096 -0.00129705 -0.00131087 -0.0012096 -0.00122275 -0.00131087 -0.00133036 -0.00110038 -0.00109931 -0.00122275 -0.00124589 -0.00109931 -0.00109786 -0.00124589 -0.00129622 -0.00122275 -0.00124589 -0.00133036 -0.00135832 -0.00124589 -0.00129622 -0.00135832 -0.00138777 -0.00129705 -0.00131087 -0.00138595 -0.00140144 -0.00131087 -0.00133036 -0.00140144 -0.00142084 -0.00138595 -0.00140144 -0.00146767 -0.00148236 -0.00140144 -0.00142084 -0.00148236 -0.00149887 -0.00133036 -0.00135832 -0.00142084 -0.00144269 -0.00135832 -0.00138777 -0.00144269 -0.00146511 -0.00142084 -0.00144269 -0.00149887 -0.0015162 -0.00144269 -0.00146511 -0.0015162 -0.00153285 -0.00142973 -0.00143658 -0.00150592 -0.00151309 -0.00143658 -0.00144499 -0.00151309 -0.00152163 -0.00150592 -0.00151309 -0.00157935 -0.00158637 -0.00151309 -0.00152163 -0.00158637 -0.00159449 -0.00144499 -0.00145526 -0.00152163 -0.00153166 -0.00145526 -0.00146767 -0.00153166 -0.00154318 -0.00152163 -0.00153166 -0.00159449 -0.00160368 -0.00153166 -0.00154318 -0.00160368 -0.00161381 -0.00157935 -0.00158637 -0.00165013 -0.00165667 -0.00158637 -0.00159449 -0.00165667 -0.00166403 -0.00165013 -0.00165667 -0.00171843 -0.00172431 -0.00165667 -0.00166403 -0.00172431 -0.00173076 -0.00159449 -0.00160368 -0.00166403 -0.00167211 -0.00160368 -0.00161381 -0.00167211 -0.00168072 -0.00166403 -0.00167211 -0.00173076 -0.00173765 -0.00167211 -0.00168072 -0.00173765 -0.00174477 -0.00146767 -0.00148236 -0.00154318 -0.00155601 -0.00148236 -0.00149887 -0.00155601 -0.00156959 -0.00154318 -0.00155601 -0.00161381 -0.00162459 -0.00155601 -0.00156959 -0.00162459 -0.00163551 -0.00149887 -0.0015162 -0.00156959 -0.00158311 -0.0015162 -0.00153285 -0.00158311 -0.00159583 -0.00156959 -0.00158311 -0.00163551 -0.00164605 -0.00158311 -0.00159583 -0.00164605 -0.00165576 -0.00161381 -0.00162459 -0.00168072 -0.00168954 -0.00162459 -0.00163551 -0.00168954 -0.00169821 -0.00168072 -0.00168954 -0.00174477 -0.00175186 -0.00168954 -0.00169821 -0.00175186 -0.00175863 -0.00163551 -0.00164605 -0.00169821 -0.00170635 -0.00164605 -0.00165576 -0.00170635 -0.00171373 -0.00169821 -0.00170635 -0.00175863 -0.00176484 -0.00170635 -0.00171373 -0.00176484 -0.00177035 -0.00169679 -0.00169701 -0.00176476 -0.00176498 -0.00169701 -0.00169793 -0.00176498 -0.00176584 -0.00176476 -0.00176498 -0.00183113 -0.00183132 -0.00176498 -0.00176584 -0.00183132 -0.00183211 -0.00169793 -0.00169956 -0.00176584 -0.00176737 -0.00169956 -0.00170189 -0.00176737 -0.00176954 -0.00176584 -0.00176737 -0.00183211 -0.00183349 -0.00176737 -0.00176954 -0.00183349 -0.00183545 -0.00183113 -0.00183132 -0.00189593 -0.0018961 -0.00183132 -0.00183211 -0.0018961 -0.00189679 -0.00189593 -0.0018961 -0.00195925 -0.00195938 -0.0018961 -0.00189679 -0.00195938 -0.00195995 -0.00183211 -0.00183349 -0.00189679 -0.00189799 -0.00183349 -0.00183545 -0.00189799 -0.00189969 -0.00189679 -0.00189799 -0.00195995 -0.00196096 -0.00189799 -0.00189969 -0.00196096 -0.00196238 -0.00170189 -0.00170494 -0.00176954 -0.00177236 -0.00170494 -0.00170872 -0.00177236 -0.00177582 -0.00176954 -0.00177236 -0.00183545 -0.00183797 -0.00177236 -0.00177582 -0.00183797 -0.00184103 -0.00170872 -0.00171322 -0.00177582 -0.00177988 -0.00171322 -0.00171843 -0.00177988 -0.0017845 -0.00177582 -0.00177988 -0.00184103 -0.00184458 -0.00177988 -0.0017845 -0.00184458 -0.00184857 -0.00183545 -0.00183797 -0.00189969 -0.00190187 -0.00183797 -0.00184103 -0.00190187 -0.00190449 -0.00189969 -0.00190187 -0.00196238 -0.00196418 -0.00190187 -0.00190449 -0.00196418 -0.00196634 -0.00184103 -0.00184458 -0.00190449 -0.0019075 -0.00184458 -0.00184857 -0.0019075 -0.00191083 -0.00190449 -0.0019075 -0.00196634 -0.00196878 -0.0019075 -0.00191083 -0.00196878 -0.00197146 -0.00195925 -0.00195938 -0.00202119 -0.00202128 -0.00195938 -0.00195995 -0.00202128 -0.00202172 -0.00202119 -0.00202128 -0.00208186 -0.00208191 -0.00202128 -0.00202172 -0.00208191 -0.00208221 -0.00195995 -0.00196096 -0.00202172 -0.0020225 -0.00196096 -0.00196238 -0.0020225 -0.00202361 -0.00202172 -0.0020225 -0.00208221 -0.00208275 -0.0020225 -0.00202361 -0.00208275 -0.00208353 -0.00208186 -0.00208191 -0.00214143 -0.00214142 -0.00208191 -0.00208221 -0.00214142 -0.00214157 -0.00214143 -0.00214142 -0.0022 -0.0022 -0.00214142 -0.00214157 -0.0022 -0.0022 -0.00208221 -0.00208275 -0.00214157 -0.00214186 -0.00208275 -0.00208353 -0.00214186 -0.00214227 -0.00214157 -0.00214186 -0.0022 -0.0022 -0.00214186 -0.00214227 -0.0022 -0.0022 -0.00196238 -0.00196418 -0.00202361 -0.00202502 -0.00196418 -0.00196634 -0.00202502 -0.00202669 -0.00202361 -0.00202502 -0.00208353 -0.00208451 -0.00202502 -0.00202669 -0.00208451 -0.00208567 -0.00196634 -0.00196878 -0.00202669 -0.00202857 -0.00196878 -0.00197146 -0.00202857 -0.0020306 -0.00202669 -0.00202857 -0.00208567 -0.00208697 -0.00202857 -0.0020306 -0.00208697 -0.00208836 -0.00208353 -0.00208451 -0.00214227 -0.00214279 -0.00208451 -0.00208567 -0.00214279 -0.0021434 -0.00214227 -0.00214279 -0.0022 -0.0022 -0.00214279 -0.0021434 -0.0022 -0.0022 -0.00208567 -0.00208697 -0.0021434 -0.00214408 -0.00208697 -0.00208836 -0.00214408 -0.00214481 -0.0021434 -0.00214408 -0.0022 -0.0022 -0.00214408 -0.00214481 -0.0022 -0.0022 -0.00171843 -0.00172431 -0.0017845 -0.00178962 -0.00172431 -0.00173076 -0.00178962 -0.00179511 -0.0017845 -0.00178962 -0.00184857 -0.00185289 -0.00178962 -0.00179511 -0.00185289 -0.00185745 -0.00173076 -0.00173765 -0.00179511 -0.00180083 -0.00173765 -0.00174477 -0.00180083 -0.00180659 -0.00179511 -0.00180083 -0.00185745 -0.00186208 -0.00180083 -0.00180659 -0.00186208 -0.00186664 -0.00184857 -0.00185289 -0.00191083 -0.00191438 -0.00185289 -0.00185745 -0.00191438 -0.00191805 -0.00191083 -0.00191438 -0.00197146 -0.00197427 -0.00191438 -0.00191805 -0.00197427 -0.00197713 -0.00185745 -0.00186208 -0.00191805 -0.00192171 -0.00186208 -0.00186664 -0.00192171 -0.00192522 -0.00191805 -0.00192171 -0.00197713 -0.00197991 -0.00192171 -0.00192522 -0.00197991 -0.00198252 -0.00174477 -0.00175186 -0.00180659 -0.00181218 -0.00175186 -0.00175863 -0.00181218 -0.00181738 -0.00180659 -0.00181218 -0.00186664 -0.00187095 -0.00181218 -0.00181738 -0.00187095 -0.00187484 -0.00175863 -0.00176484 -0.00181738 -0.00182202 -0.00176484 -0.00177035 -0.00182202 -0.00182602 -0.00181738 -0.00182202 -0.00187484 -0.0018782 -0.00182202 -0.00182602 -0.0018782 -0.00188099 -0.00186664 -0.00187095 -0.00192522 -0.00192844 -0.00187095 -0.00187484 -0.00192844 -0.00193125 -0.00192522 -0.00192844 -0.00198252 -0.00198484 -0.00192844 -0.00193125 -0.00198484 -0.00198678 -0.00187484 -0.0018782 -0.00193125 -0.00193359 -0.0018782 -0.00188099 -0.00193359 -0.00193541 -0.00193125 -0.00193359 -0.00198678 -0.00198829 -0.00193359 -0.00193541 -0.00198829 -0.00198936 -0.00197146 -0.00197427 -0.0020306 -0.00203271 -0.00197427 -0.00197713 -0.00203271 -0.00203481 -0.0020306 -0.00203271 -0.00208836 -0.00208978 -0.00203271 -0.00203481 -0.00208978 -0.00209118 -0.00197713 -0.00197991 -0.00203481 -0.00203682 -0.00197991 -0.00198252 -0.00203682 -0.00203865 -0.00203481 -0.00203682 -0.00209118 -0.00209249 -0.00203682 -0.00203865 -0.00209249 -0.00209365 -0.00208836 -0.00208978 -0.00214481 -0.00214555 -0.00208978 -0.00209118 -0.00214555 -0.00214626 -0.00214481 -0.00214555 -0.0022 -0.0022 -0.00214555 -0.00214626 -0.0022 -0.0022 -0.00209118 -0.00209249 -0.00214626 -0.00214691 -0.00209249 -0.00209365 -0.00214691 -0.00214747 -0.00214626 -0.00214691 -0.0022 -0.0022 -0.00214691 -0.00214747 -0.0022 -0.0022 -0.00198252 -0.00198484 -0.00203865 -0.00204022 -0.00198484 -0.00198678 -0.00204022 -0.00204146 -0.00203865 -0.00204022 -0.00209365 -0.0020946 -0.00204022 -0.00204146 -0.0020946 -0.0020953 -0.00198678 -0.00198829 -0.00204146 -0.00204234 -0.00198829 -0.00198936 -0.00204234 -0.00204286 -0.00204146 -0.00204234 -0.0020953 -0.00209572 -0.00204234 -0.00204286 -0.00209572 -0.00209587 -0.00209365 -0.0020946 -0.00214747 -0.00214791 -0.0020946 -0.0020953 -0.00214791 -0.0021482 -0.00214747 -0.00214791 -0.0022 -0.0022 -0.00214791 -0.0021482 -0.0022 -0.0022 -0.0020953 -0.00209572 -0.0021482 -0.00214833 -0.00209572 -0.00209587 -0.00214833 -0.0021483 -0.0021482 -0.00214833 -0.0022 -0.0022 -0.00214833 -0.0021483 -0.0022 -0.0022 -0.00109786 -0.00126538 -0.00129622 -0.00133671 -0.00126538 -0.00136483 -0.00133671 -0.00139248 -0.00129622 -0.00133671 -0.00138777 -0.00141843 -0.00133671 -0.00139248 -0.00141843 -0.00144796 -0.00136483 -0.00143239 -0.00139248 -0.00144504 -0.00143239 -0.00148351 -0.00144504 -0.00148995 -0.00139248 -0.00144504 -0.00144796 -0.00148176 -0.00144504 -0.00148995 -0.00148176 -0.00151538 -0.00138777 -0.00141843 -0.00146511 -0.00148584 -0.00141843 -0.00144796 -0.00148584 -0.00150671 -0.00146511 -0.00148584 -0.00153285 -0.00154839 -0.00148584 -0.00150671 -0.00154839 -0.00156337 -0.00144796 -0.00148176 -0.00150671 -0.00152886 -0.00148176 -0.00151538 -0.00152886 -0.00155253 -0.00150671 -0.00152886 -0.00156337 -0.00157905 -0.00152886 -0.00155253 -0.00157905 -0.00159574 -0.00148351 -0.00152424 -0.00148995 -0.00152773 -0.00152424 -0.00155756 -0.00152773 -0.00155953 -0.00148995 -0.00152773 -0.00151538 -0.00154635 -0.00152773 -0.00155953 -0.00154635 -0.00157389 -0.00155756 -0.00158516 -0.00155953 -0.00158635 -0.00158516 -0.00160813 -0.00158635 -0.00160892 -0.00155953 -0.00158635 -0.00157389 -0.00159793 -0.00158635 -0.00160892 -0.00159793 -0.00161867 -0.00151538 -0.00154635 -0.00155253 -0.00157608 -0.00154635 -0.00157389 -0.00157608 -0.00159828 -0.00155253 -0.00157608 -0.00159574 -0.00161303 -0.00157608 -0.00159828 -0.00161303 -0.00163011 -0.00157389 -0.00159793 -0.00159828 -0.0016185 -0.00159793 -0.00161867 -0.0016185 -0.00163648 -0.00159828 -0.0016185 -0.00163011 -0.00164629 -0.0016185 -0.00163648 -0.00164629 -0.00166114 -0.00153285 -0.00154839 -0.00159583 -0.00160751 -0.00154839 -0.00156337 -0.00160751 -0.00161865 -0.00159583 -0.00160751 -0.00165576 -0.0016646 -0.00160751 -0.00161865 -0.0016646 -0.00167286 -0.00156337 -0.00157905 -0.00161865 -0.00162995 -0.00157905 -0.00159574 -0.00162995 -0.00164188 -0.00161865 -0.00162995 -0.00167286 -0.00168106 -0.00162995 -0.00164188 -0.00168106 -0.00168959 -0.00165576 -0.0016646 -0.00171373 -0.00172033 -0.0016646 -0.00167286 -0.00172033 -0.00172639 -0.00171373 -0.00172033 -0.00177035 -0.00177518 -0.00172033 -0.00172639 -0.00177518 -0.0017795 -0.00167286 -0.00168106 -0.00172639 -0.00173226 -0.00168106 -0.00168959 -0.00173226 -0.00173826 -0.00172639 -0.00173226 -0.0017795 -0.00178357 -0.00173226 -0.00173826 -0.00178357 -0.00178764 -0.00159574 -0.00161303 -0.00164188 -0.00165441 -0.00161303 -0.00163011 -0.00165441 -0.00166715 -0.00164188 -0.00165441 -0.00168959 -0.00169856 -0.00165441 -0.00166715 -0.00169856 -0.00170784 -0.00163011 -0.00164629 -0.00166715 -0.00167962 -0.00164629 -0.00166114 -0.00167962 -0.00169139 -0.00166715 -0.00167962 -0.00170784 -0.00171713 -0.00167962 -0.00169139 -0.00171713 -0.00172613 -0.00168959 -0.00169856 -0.00173826 -0.00174455 -0.00169856 -0.00170784 -0.00174455 -0.00175112 -0.00173826 -0.00174455 -0.00178764 -0.00179189 -0.00174455 -0.00175112 -0.00179189 -0.00179635 -0.00170784 -0.00171713 -0.00175112 -0.00175782 -0.00171713 -0.00172613 -0.00175782 -0.00176445 -0.00175112 -0.00175782 -0.00179635 -0.00180098 -0.00175782 -0.00176445 -0.00180098 -0.00180565 -0.00160813 -0.00162722 -0.00160892 -0.00162784 -0.00162722 -0.00164294 -0.00162784 -0.00164354 -0.00160892 -0.00162784 -0.00161867 -0.00163635 -0.00162784 -0.00164354 -0.00163635 -0.00165119 -0.00164294 -0.0016557 -0.00164354 -0.00165634 -0.0016557 -0.00166579 -0.00165634 -0.00166651 -0.00164354 -0.00165634 -0.00165119 -0.00166341 -0.00165634 -0.00166651 -0.00166341 -0.00167319 -0.00161867 -0.00163635 -0.00163648 -0.00165214 -0.00163635 -0.00165119 -0.00165214 -0.00166552 -0.00163648 -0.00165214 -0.00166114 -0.00167439 -0.00165214 -0.00166552 -0.00167439 -0.00168593 -0.00165119 -0.00166341 -0.00166552 -0.00167667 -0.00166341 -0.00167319 -0.00167667 -0.00168567 -0.00166552 -0.00167667 -0.00168593 -0.00169568 -0.00167667 -0.00168567 -0.00169568 -0.00170364 -0.00166579 -0.00167343 -0.00166651 -0.00167424 -0.00167343 -0.00167878 -0.00167424 -0.00167966 -0.00166651 -0.00167424 -0.00167319 -0.00168065 -0.00167424 -0.00167966 -0.00168065 -0.00168591 -0.00167878 -0.00168195 -0.00167966 -0.00168287 -0.00168195 -0.001683 -0.00168287 -0.00168394 -0.00167966 -0.00168287 -0.00168591 -0.00168903 -0.00168287 -0.00168394 -0.00168903 -0.00169007 -0.00167319 -0.00168065 -0.00168567 -0.00169258 -0.00168065 -0.00168591 -0.00169258 -0.00169748 -0.00168567 -0.00169258 -0.00170364 -0.00170981 -0.00169258 -0.00169748 -0.00170981 -0.0017142 -0.00168591 -0.00168903 -0.00169748 -0.0017004 -0.00168903 -0.00169007 -0.0017004 -0.00170137 -0.00169748 -0.0017004 -0.0017142 -0.00171683 -0.0017004 -0.00170137 -0.00171683 -0.0017177 -0.00166114 -0.00167439 -0.00169139 -0.00170216 -0.00167439 -0.00168593 -0.00170216 -0.00171172 -0.00169139 -0.00170216 -0.00172613 -0.00173456 -0.00170216 -0.00171172 -0.00173456 -0.00174217 -0.00168593 -0.00169568 -0.00171172 -0.00171993 -0.00169568 -0.00170364 -0.00171993 -0.0017267 -0.00171172 -0.00171993 -0.00174217 -0.00174882 -0.00171993 -0.0017267 -0.00174882 -0.00175438 -0.00172613 -0.00173456 -0.00176445 -0.00177079 -0.00173456 -0.00174217 -0.00177079 -0.00177662 -0.00176445 -0.00177079 -0.00180565 -0.00181021 -0.00177079 -0.00177662 -0.00181021 -0.00181449 -0.00174217 -0.00174882 -0.00177662 -0.0017818 -0.00174882 -0.00175438 -0.0017818 -0.00178618 -0.00177662 -0.0017818 -0.00181449 -0.00181835 -0.0017818 -0.00178618 -0.00181835 -0.00182166 -0.00170364 -0.00170981 -0.0017267 -0.001732 -0.00170981 -0.0017142 -0.001732 -0.0017358 -0.0017267 -0.001732 -0.00175438 -0.00175876 -0.001732 -0.0017358 -0.00175876 -0.00176193 -0.0017142 -0.00171683 -0.0017358 -0.00173808 -0.00171683 -0.0017177 -0.00173808 -0.00173883 -0.0017358 -0.00173808 -0.00176193 -0.00176383 -0.00173808 -0.00173883 -0.00176383 -0.00176446 -0.00175438 -0.00175876 -0.00178618 -0.00178968 -0.00175876 -0.00176193 -0.00178968 -0.00179221 -0.00178618 -0.00178968 -0.00182166 -0.00182433 -0.00178968 -0.00179221 -0.00182433 -0.00182628 -0.00176193 -0.00176383 -0.00179221 -0.00179374 -0.00176383 -0.00176446 -0.00179374 -0.00179424 -0.00179221 -0.00179374 -0.00182628 -0.00182746 -0.00179374 -0.00179424 -0.00182746 -0.00182784 -0.00177035 -0.00177518 -0.00182602 -0.00182942 -0.00177518 -0.0017795 -0.00182942 -0.00183235 -0.00182602 -0.00182942 -0.00188099 -0.00188325 -0.00182942 -0.00183235 -0.00188325 -0.00188508 -0.0017795 -0.00178357 -0.00183235 -0.00183501 -0.00178357 -0.00178764 -0.00183501 -0.00183761 -0.00183235 -0.00183501 -0.00188508 -0.00188664 -0.00183501 -0.00183761 -0.00188664 -0.00188809 -0.00188099 -0.00188325 -0.00193541 -0.00193677 -0.00188325 -0.00188508 -0.00193677 -0.00193774 -0.00193541 -0.00193677 -0.00198936 -0.00199003 -0.00193677 -0.00193774 -0.00199003 -0.00199037 -0.00188508 -0.00188664 -0.00193774 -0.00193846 -0.00188664 -0.00188809 -0.00193846 -0.00193906 -0.00193774 -0.00193846 -0.00199037 -0.00199048 -0.00193846 -0.00193906 -0.00199048 -0.00199047 -0.00178764 -0.00179189 -0.00183761 -0.00184028 -0.00179189 -0.00179635 -0.00184028 -0.00184313 -0.00183761 -0.00184028 -0.00188809 -0.00188958 -0.00184028 -0.00184313 -0.00188958 -0.00189118 -0.00179635 -0.00180098 -0.00184313 -0.00184613 -0.00180098 -0.00180565 -0.00184613 -0.00184923 -0.00184313 -0.00184613 -0.00189118 -0.00189292 -0.00184613 -0.00184923 -0.00189292 -0.00189479 -0.00188809 -0.00188958 -0.00193906 -0.00193966 -0.00188958 -0.00189118 -0.00193966 -0.00194034 -0.00193906 -0.00193966 -0.00199047 -0.00199045 -0.00193966 -0.00194034 -0.00199045 -0.00199049 -0.00189118 -0.00189292 -0.00194034 -0.00194115 -0.00189292 -0.00189479 -0.00194115 -0.00194209 -0.00194034 -0.00194115 -0.00199049 -0.00199064 -0.00194115 -0.00194209 -0.00199064 -0.00199092 -0.00198936 -0.00199003 -0.00204286 -0.00204304 -0.00199003 -0.00199037 -0.00204304 -0.00204296 -0.00204286 -0.00204304 -0.00209587 -0.00209577 -0.00204304 -0.00204296 -0.00209577 -0.00209547 -0