# vtk DataFile Version 3.0
#This file was generated by the deal.II library on 2018/7/10 at 10:46:52
ASCII
DATASET UNSTRUCTURED_GRID

POINTS 4096 double
0 0.5 0
0.03125 0.5 0
0 0.53125 0
0.03125 0.53125 0
0.03125 0.5 0
0.0625 0.5 0
0.03125 0.53125 0
0.0625 0.53125 0
0 0.53125 0
0.03125 0.53125 0
0 0.5625 0
0.03125 0.5625 0
0.03125 0.53125 0
0.0625 0.53125 0
0.03125 0.5625 0
0.0625 0.5625 0
0.0625 0.5 0
0.09375 0.5 0
0.0625 0.53125 0
0.09375 0.53125 0
0.09375 0.5 0
0.125 0.5 0
0.09375 0.53125 0
0.125 0.53125 0
0.0625 0.53125 0
0.09375 0.53125 0
0.0625 0.5625 0
0.09375 0.5625 0
0.09375 0.53125 0
0.125 0.53125 0
0.09375 0.5625 0
0.125 0.5625 0
0 0.5625 0
0.03125 0.5625 0
0 0.59375 0
0.03125 0.59375 0
0.03125 0.5625 0
0.0625 0.5625 0
0.03125 0.59375 0
0.0625 0.59375 0
0 0.59375 0
0.03125 0.59375 0
0 0.625 0
0.03125 0.625 0
0.03125 0.59375 0
0.0625 0.59375 0
0.03125 0.625 0
0.0625 0.625 0
0.0625 0.5625 0
0.09375 0.5625 0
0.0625 0.59375 0
0.09375 0.59375 0
0.09375 0.5625 0
0.125 0.5625 0
0.09375 0.59375 0
0.125 0.59375 0
0.0625 0.59375 0
0.09375 0.59375 0
0.0625 0.625 0
0.09375 0.625 0
0.09375 0.59375 0
0.125 0.59375 0
0.09375 0.625 0
0.125 0.625 0
0.125 0.5 0
0.15625 0.5 0
0.125 0.53125 0
0.15625 0.53125 0
0.15625 0.5 0
0.1875 0.5 0
0.15625 0.53125 0
0.1875 0.53125 0
0.125 0.53125 0
0.15625 0.53125 0
0.125 0.5625 0
0.15625 0.5625 0
0.15625 0.53125 0
0.1875 0.53125 0
0.15625 0.5625 0
0.1875 0.5625 0
0.1875 0.5 0
0.21875 0.5 0
0.1875 0.53125 0
0.21875 0.53125 0
0.21875 0.5 0
0.25 0.5 0
0.21875 0.53125 0
0.25 0.53125 0
0.1875 0.53125 0
0.21875 0.53125 0
0.1875 0.5625 0
0.21875 0.5625 0
0.21875 0.53125 0
0.25 0.53125 0
0.21875 0.5625 0
0.25 0.5625 0
0.125 0.5625 0
0.15625 0.5625 0
0.125 0.59375 0
0.15625 0.59375 0
0.15625 0.5625 0
0.1875 0.5625 0
0.15625 0.59375 0
0.1875 0.59375 0
0.125 0.59375 0
0.15625 0.59375 0
0.125 0.625 0
0.15625 0.625 0
0.15625 0.59375 0
0.1875 0.59375 0
0.15625 0.625 0
0.1875 0.625 0
0.1875 0.5625 0
0.21875 0.5625 0
0.1875 0.59375 0
0.21875 0.59375 0
0.21875 0.5625 0
0.25 0.5625 0
0.21875 0.59375 0
0.25 0.59375 0
0.1875 0.59375 0
0.21875 0.59375 0
0.1875 0.625 0
0.21875 0.625 0
0.21875 0.59375 0
0.25 0.59375 0
0.21875 0.625 0
0.25 0.625 0
0 0.625 0
0.03125 0.625 0
0 0.65625 0
0.03125 0.65625 0
0.03125 0.625 0
0.0625 0.625 0
0.03125 0.65625 0
0.0625 0.65625 0
0 0.65625 0
0.03125 0.65625 0
0 0.6875 0
0.03125 0.6875 0
0.03125 0.65625 0
0.0625 0.65625 0
0.03125 0.6875 0
0.0625 0.6875 0
0.0625 0.625 0
0.09375 0.625 0
0.0625 0.65625 0
0.09375 0.65625 0
0.09375 0.625 0
0.125 0.625 0
0.09375 0.65625 0
0.125 0.65625 0
0.0625 0.65625 0
0.09375 0.65625 0
0.0625 0.6875 0
0.09375 0.6875 0
0.09375 0.65625 0
0.125 0.65625 0
0.09375 0.6875 0
0.125 0.6875 0
0 0.6875 0
0.03125 0.6875 0
0 0.71875 0
0.03125 0.71875 0
0.03125 0.6875 0
0.0625 0.6875 0
0.03125 0.71875 0
0.0625 0.71875 0
0 0.71875 0
0.03125 0.71875 0
0 0.75 0
0.03125 0.75 0
0.03125 0.71875 0
0.0625 0.71875 0
0.03125 0.75 0
0.0625 0.75 0
0.0625 0.6875 0
0.09375 0.6875 0
0.0625 0.71875 0
0.09375 0.71875 0
0.09375 0.6875 0
0.125 0.6875 0
0.09375 0.71875 0
0.125 0.71875 0
0.0625 0.71875 0
0.09375 0.71875 0
0.0625 0.75 0
0.09375 0.75 0
0.09375 0.71875 0
0.125 0.71875 0
0.09375 0.75 0
0.125 0.75 0
0.125 0.625 0
0.15625 0.625 0
0.125 0.65625 0
0.15625 0.65625 0
0.15625 0.625 0
0.1875 0.625 0
0.15625 0.65625 0
0.1875 0.65625 0
0.125 0.65625 0
0.15625 0.65625 0
0.125 0.6875 0
0.15625 0.6875 0
0.15625 0.65625 0
0.1875 0.65625 0
0.15625 0.6875 0
0.1875 0.6875 0
0.1875 0.625 0
0.21875 0.625 0
0.1875 0.65625 0
0.21875 0.65625 0
0.21875 0.625 0
0.25 0.625 0
0.21875 0.65625 0
0.25 0.65625 0
0.1875 0.65625 0
0.21875 0.65625 0
0.1875 0.6875 0
0.21875 0.6875 0
0.21875 0.65625 0
0.25 0.65625 0
0.21875 0.6875 0
0.25 0.6875 0
0.125 0.6875 0
0.15625 0.6875 0
0.125 0.71875 0
0.15625 0.71875 0
0.15625 0.6875 0
0.1875 0.6875 0
0.15625 0.71875 0
0.1875 0.71875 0
0.125 0.71875 0
0.15625 0.71875 0
0.125 0.75 0
0.15625 0.75 0
0.15625 0.71875 0
0.1875 0.71875 0
0.15625 0.75 0
0.1875 0.75 0
0.1875 0.6875 0
0.21875 0.6875 0
0.1875 0.71875 0
0.21875 0.71875 0
0.21875 0.6875 0
0.25 0.6875 0
0.21875 0.71875 0
0.25 0.71875 0
0.1875 0.71875 0
0.21875 0.71875 0
0.1875 0.75 0
0.21875 0.75 0
0.21875 0.71875 0
0.25 0.71875 0
0.21875 0.75 0
0.25 0.75 0
0.25 0.5 0
0.28125 0.5 0
0.25 0.53125 0
0.28125 0.53125 0
0.28125 0.5 0
0.3125 0.5 0
0.28125 0.53125 0
0.3125 0.53125 0
0.25 0.53125 0
0.28125 0.53125 0
0.25 0.5625 0
0.28125 0.5625 0
0.28125 0.53125 0
0.3125 0.53125 0
0.28125 0.5625 0
0.3125 0.5625 0
0.3125 0.5 0
0.34375 0.5 0
0.3125 0.53125 0
0.34375 0.53125 0
0.34375 0.5 0
0.375 0.5 0
0.34375 0.53125 0
0.375 0.53125 0
0.3125 0.53125 0
0.34375 0.53125 0
0.3125 0.5625 0
0.34375 0.5625 0
0.34375 0.53125 0
0.375 0.53125 0
0.34375 0.5625 0
0.375 0.5625 0
0.25 0.5625 0
0.28125 0.5625 0
0.25 0.59375 0
0.28125 0.59375 0
0.28125 0.5625 0
0.3125 0.5625 0
0.28125 0.59375 0
0.3125 0.59375 0
0.25 0.59375 0
0.28125 0.59375 0
0.25 0.625 0
0.28125 0.625 0
0.28125 0.59375 0
0.3125 0.59375 0
0.28125 0.625 0
0.3125 0.625 0
0.3125 0.5625 0
0.34375 0.5625 0
0.3125 0.59375 0
0.34375 0.59375 0
0.34375 0.5625 0
0.375 0.5625 0
0.34375 0.59375 0
0.375 0.59375 0
0.3125 0.59375 0
0.34375 0.59375 0
0.3125 0.625 0
0.34375 0.625 0
0.34375 0.59375 0
0.375 0.59375 0
0.34375 0.625 0
0.375 0.625 0
0.375 0.5 0
0.40625 0.5 0
0.375 0.53125 0
0.40625 0.53125 0
0.40625 0.5 0
0.4375 0.5 0
0.40625 0.53125 0
0.4375 0.53125 0
0.375 0.53125 0
0.40625 0.53125 0
0.375 0.5625 0
0.40625 0.5625 0
0.40625 0.53125 0
0.4375 0.53125 0
0.40625 0.5625 0
0.4375 0.5625 0
0.4375 0.5 0
0.46875 0.5 0
0.4375 0.53125 0
0.46875 0.53125 0
0.46875 0.5 0
0.5 0.5 0
0.46875 0.53125 0
0.5 0.53125 0
0.4375 0.53125 0
0.46875 0.53125 0
0.4375 0.5625 0
0.46875 0.5625 0
0.46875 0.53125 0
0.5 0.53125 0
0.46875 0.5625 0
0.5 0.5625 0
0.375 0.5625 0
0.40625 0.5625 0
0.375 0.59375 0
0.40625 0.59375 0
0.40625 0.5625 0
0.4375 0.5625 0
0.40625 0.59375 0
0.4375 0.59375 0
0.375 0.59375 0
0.40625 0.59375 0
0.375 0.625 0
0.40625 0.625 0
0.40625 0.59375 0
0.4375 0.59375 0
0.40625 0.625 0
0.4375 0.625 0
0.4375 0.5625 0
0.46875 0.5625 0
0.4375 0.59375 0
0.46875 0.59375 0
0.46875 0.5625 0
0.5 0.5625 0
0.46875 0.59375 0
0.5 0.59375 0
0.4375 0.59375 0
0.46875 0.59375 0
0.4375 0.625 0
0.46875 0.625 0
0.46875 0.59375 0
0.5 0.59375 0
0.46875 0.625 0
0.5 0.625 0
0.25 0.625 0
0.28125 0.625 0
0.25 0.65625 0
0.28125 0.65625 0
0.28125 0.625 0
0.3125 0.625 0
0.28125 0.65625 0
0.3125 0.65625 0
0.25 0.65625 0
0.28125 0.65625 0
0.25 0.6875 0
0.28125 0.6875 0
0.28125 0.65625 0
0.3125 0.65625 0
0.28125 0.6875 0
0.3125 0.6875 0
0.3125 0.625 0
0.34375 0.625 0
0.3125 0.65625 0
0.34375 0.65625 0
0.34375 0.625 0
0.375 0.625 0
0.34375 0.65625 0
0.375 0.65625 0
0.3125 0.65625 0
0.34375 0.65625 0
0.3125 0.6875 0
0.34375 0.6875 0
0.34375 0.65625 0
0.375 0.65625 0
0.34375 0.6875 0
0.375 0.6875 0
0.25 0.6875 0
0.28125 0.6875 0
0.25 0.71875 0
0.28125 0.71875 0
0.28125 0.6875 0
0.3125 0.6875 0
0.28125 0.71875 0
0.3125 0.71875 0
0.25 0.71875 0
0.28125 0.71875 0
0.25 0.75 0
0.28125 0.75 0
0.28125 0.71875 0
0.3125 0.71875 0
0.28125 0.75 0
0.3125 0.75 0
0.3125 0.6875 0
0.34375 0.6875 0
0.3125 0.71875 0
0.34375 0.71875 0
0.34375 0.6875 0
0.375 0.6875 0
0.34375 0.71875 0
0.375 0.71875 0
0.3125 0.71875 0
0.34375 0.71875 0
0.3125 0.75 0
0.34375 0.75 0
0.34375 0.71875 0
0.375 0.71875 0
0.34375 0.75 0
0.375 0.75 0
0.375 0.625 0
0.40625 0.625 0
0.375 0.65625 0
0.40625 0.65625 0
0.40625 0.625 0
0.4375 0.625 0
0.40625 0.65625 0
0.4375 0.65625 0
0.375 0.65625 0
0.40625 0.65625 0
0.375 0.6875 0
0.40625 0.6875 0
0.40625 0.65625 0
0.4375 0.65625 0
0.40625 0.6875 0
0.4375 0.6875 0
0.4375 0.625 0
0.46875 0.625 0
0.4375 0.65625 0
0.46875 0.65625 0
0.46875 0.625 0
0.5 0.625 0
0.46875 0.65625 0
0.5 0.65625 0
0.4375 0.65625 0
0.46875 0.65625 0
0.4375 0.6875 0
0.46875 0.6875 0
0.46875 0.65625 0
0.5 0.65625 0
0.46875 0.6875 0
0.5 0.6875 0
0.375 0.6875 0
0.40625 0.6875 0
0.375 0.71875 0
0.40625 0.71875 0
0.40625 0.6875 0
0.4375 0.6875 0
0.40625 0.71875 0
0.4375 0.71875 0
0.375 0.71875 0
0.40625 0.71875 0
0.375 0.75 0
0.40625 0.75 0
0.40625 0.71875 0
0.4375 0.71875 0
0.40625 0.75 0
0.4375 0.75 0
0.4375 0.6875 0
0.46875 0.6875 0
0.4375 0.71875 0
0.46875 0.71875 0
0.46875 0.6875 0
0.5 0.6875 0
0.46875 0.71875 0
0.5 0.71875 0
0.4375 0.71875 0
0.46875 0.71875 0
0.4375 0.75 0
0.46875 0.75 0
0.46875 0.71875 0
0.5 0.71875 0
0.46875 0.75 0
0.5 0.75 0
0 0.75 0
0.03125 0.75 0
0 0.78125 0
0.03125 0.78125 0
0.03125 0.75 0
0.0625 0.75 0
0.03125 0.78125 0
0.0625 0.78125 0
0 0.78125 0
0.03125 0.78125 0
0 0.8125 0
0.03125 0.8125 0
0.03125 0.78125 0
0.0625 0.78125 0
0.03125 0.8125 0
0.0625 0.8125 0
0.0625 0.75 0
0.09375 0.75 0
0.0625 0.78125 0
0.09375 0.78125 0
0.09375 0.75 0
0.125 0.75 0
0.09375 0.78125 0
0.125 0.78125 0
0.0625 0.78125 0
0.09375 0.78125 0
0.0625 0.8125 0
0.09375 0.8125 0
0.09375 0.78125 0
0.125 0.78125 0
0.09375 0.8125 0
0.125 0.8125 0
0 0.8125 0
0.03125 0.8125 0
0 0.84375 0
0.03125 0.84375 0
0.03125 0.8125 0
0.0625 0.8125 0
0.03125 0.84375 0
0.0625 0.84375 0
0 0.84375 0
0.03125 0.84375 0
0 0.875 0
0.03125 0.875 0
0.03125 0.84375 0
0.0625 0.84375 0
0.03125 0.875 0
0.0625 0.875 0
0.0625 0.8125 0
0.09375 0.8125 0
0.0625 0.84375 0
0.09375 0.84375 0
0.09375 0.8125 0
0.125 0.8125 0
0.09375 0.84375 0
0.125 0.84375 0
0.0625 0.84375 0
0.09375 0.84375 0
0.0625 0.875 0
0.09375 0.875 0
0.09375 0.84375 0
0.125 0.84375 0
0.09375 0.875 0
0.125 0.875 0
0.125 0.75 0
0.15625 0.75 0
0.125 0.78125 0
0.15625 0.78125 0
0.15625 0.75 0
0.1875 0.75 0
0.15625 0.78125 0
0.1875 0.78125 0
0.125 0.78125 0
0.15625 0.78125 0
0.125 0.8125 0
0.15625 0.8125 0
0.15625 0.78125 0
0.1875 0.78125 0
0.15625 0.8125 0
0.1875 0.8125 0
0.1875 0.75 0
0.21875 0.75 0
0.1875 0.78125 0
0.21875 0.78125 0
0.21875 0.75 0
0.25 0.75 0
0.21875 0.78125 0
0.25 0.78125 0
0.1875 0.78125 0
0.21875 0.78125 0
0.1875 0.8125 0
0.21875 0.8125 0
0.21875 0.78125 0
0.25 0.78125 0
0.21875 0.8125 0
0.25 0.8125 0
0.125 0.8125 0
0.15625 0.8125 0
0.125 0.84375 0
0.15625 0.84375 0
0.15625 0.8125 0
[...]
POINT_DATA 4096
SCALARS State_InstatPDEProblemContainer_0 double 1
LOOKUP_TABLE default
-0.000650958 -0.000650914 -0.000696498 -0.000696504 -0.000650914 -0.000650864 -0.000696504 -0.000696608 -0.000696498 -0.000696504 -0.000741852 -0.000741907 -0.000696504 -0.000696608 -0.000741907 -0.000742155 -0.000650864 -0.000650809 -0.000696608 -0.000696814 -0.000650809 -0.000650747 -0.000696814 -0.000697134 -0.000696608 -0.000696814 -0.000742155 -0.000742607 -0.000696814 -0.000697134 -0.000742607 -0.000743282 -0.000741852 -0.000741907 -0.00078684 -0.000786937 -0.000741907 -0.000742155 -0.000786937 -0.000787311 -0.00078684 -0.000786937 -0.000831295 -0.000831427 -0.000786937 -0.000787311 -0.000831427 -0.000831901 -0.000742155 -0.000742607 -0.000787311 -0.000787976 -0.000742607 -0.000743282 -0.000787976 -0.000788955 -0.000787311 -0.000787976 -0.000831901 -0.000832734 -0.000787976 -0.000788955 -0.000832734 -0.000833949 -0.000650747 -0.000650678 -0.000697134 -0.000697581 -0.000650678 -0.0006506 -0.000697581 -0.000698178 -0.000697134 -0.000697581 -0.000743282 -0.000744207 -0.000697581 -0.000698178 -0.000744207 -0.000745427 -0.0006506 -0.000650511 -0.000698178 -0.000698961 -0.000650511 -0.00065041 -0.000698961 -0.000699978 -0.000698178 -0.000698961 -0.000745427 -0.000747 -0.000698961 -0.000699978 -0.000747 -0.000749017 -0.000743282 -0.000744207 -0.000788955 -0.000790285 -0.000744207 -0.000745427 -0.000790285 -0.00079202 -0.000788955 -0.000790285 -0.000833949 -0.000835586 -0.000790285 -0.00079202 -0.000835586 -0.000837699 -0.000745427 -0.000747 -0.00079202 -0.000794234 -0.000747 -0.000749017 -0.000794234 -0.00079703 -0.00079202 -0.000794234 -0.000837699 -0.00084036 -0.000794234 -0.00079703 -0.00084036 -0.000843665 -0.000831295 -0.000831427 -0.000875078 -0.000875234 -0.000831427 -0.000831901 -0.000875234 -0.00087578 -0.000875078 -0.000875234 -0.000918075 -0.000918247 -0.000875234 -0.00087578 -0.000918247 -0.000918834 -0.000831901 -0.000832734 -0.00087578 -0.000876729 -0.000832734 -0.000833949 -0.000876729 -0.000878103 -0.00087578 -0.000876729 -0.000918834 -0.000919847 -0.000876729 -0.000878103 -0.000919847 -0.000921304 -0.000918075 -0.000918247 -0.000960207 -0.000960385 -0.000918247 -0.000918834 -0.000960385 -0.000960985 -0.000960207 -0.000960385 -0.00100142 -0.0010016 -0.000960385 -0.000960985 -0.0010016 -0.00100219 -0.000918834 -0.000919847 -0.000960985 -0.000962013 -0.000919847 -0.000921304 -0.000962013 -0.000963482 -0.000960985 -0.000962013 -0.00100219 -0.00100319 -0.000962013 -0.000963482 -0.00100319 -0.00100461 -0.000833949 -0.000835586 -0.000878103 -0.000879939 -0.000835586 -0.000837699 -0.000879939 -0.000882281 -0.000878103 -0.000879939 -0.000921304 -0.000923231 -0.000879939 -0.000882281 -0.000923231 -0.000925662 -0.000837699 -0.00084036 -0.000882281 -0.000885189 -0.00084036 -0.000843665 -0.000885189 -0.000888736 -0.000882281 -0.000885189 -0.000925662 -0.000928637 -0.000885189 -0.000888736 -0.000928637 -0.000932197 -0.000921304 -0.000923231 -0.000963482 -0.000965407 -0.000923231 -0.000925662 -0.000965407 -0.000967808 -0.000963482 -0.000965407 -0.00100461 -0.00100646 -0.000965407 -0.000967808 -0.00100646 -0.00100873 -0.000925662 -0.000928637 -0.000967808 -0.000970701 -0.000928637 -0.000932197 -0.000970701 -0.000974102 -0.000967808 -0.000970701 -0.00100873 -0.00101144 -0.000970701 -0.000974102 -0.00101144 -0.00101456 -0.00065041 -0.000650293 -0.000699978 -0.000701305 -0.000650293 -0.000650157 -0.000701305 -0.000703058 -0.000699978 -0.000701305 -0.000749017 -0.000751605 -0.000701305 -0.000703058 -0.000751605 -0.000754955 -0.000650157 -0.000649994 -0.000703058 -0.000705426 -0.000649994 -0.000649795 -0.000705426 -0.000708738 -0.000703058 -0.000705426 -0.000754955 -0.000759359 -0.000705426 -0.000708738 -0.000759359 -0.000765275 -0.000749017 -0.000751605 -0.00079703 -0.000800551 -0.000751605 -0.000754955 -0.000800551 -0.000804997 -0.00079703 -0.000800551 -0.000843665 -0.000847739 -0.000800551 -0.000804997 -0.000847739 -0.000852735 -0.000754955 -0.000759359 -0.000804997 -0.000810641 -0.000759359 -0.000765275 -0.000810641 -0.000817845 -0.000804997 -0.000810641 -0.000852735 -0.000858833 -0.000810641 -0.000817845 -0.000858833 -0.000866202 -0.000649795 -0.000649537 -0.000708738 -0.000713607 -0.000649537 -0.000649171 -0.000713607 -0.000721358 -0.000708738 -0.000713607 -0.000765275 -0.000773445 -0.000713607 -0.000721358 -0.000773445 -0.000784977 -0.000649171 -0.000648495 -0.000721358 -0.000735017 -0.000648495 -0.00064756 -0.000735017 -0.00076482 -0.000721358 -0.000735017 -0.000784977 -0.000801548 -0.000735017 -0.00076482 -0.000801548 -0.000819022 -0.000765275 -0.000773445 -0.000817845 -0.000827028 -0.000773445 -0.000784977 -0.000827028 -0.000838534 -0.000817845 -0.000827028 -0.000866202 -0.000874925 -0.000827028 -0.000838534 -0.000874925 -0.000884739 -0.000784977 -0.000801548 -0.000838534 -0.000851505 -0.000801548 -0.000819022 -0.000851505 -0.000864817 -0.000838534 -0.000851505 -0.000884739 -0.000895035 -0.000851505 -0.000864817 -0.000895035 -0.000904932 -0.000843665 -0.000847739 -0.000888736 -0.000893007 -0.000847739 -0.000852735 -0.000893007 -0.000898089 -0.000888736 -0.000893007 -0.000932197 -0.000936385 -0.000893007 -0.000898089 -0.000936385 -0.000941223 -0.000852735 -0.000858833 -0.000898089 -0.000904053 -0.000858833 -0.000866202 -0.000904053 -0.000910911 -0.000898089 -0.000904053 -0.000941223 -0.000946701 -0.000904053 -0.000910911 -0.000946701 -0.000952738 -0.000932197 -0.000936385 -0.000974102 -0.000978011 -0.000936385 -0.000941223 -0.000978011 -0.000982408 -0.000974102 -0.000978011 -0.00101456 -0.00101807 -0.000978011 -0.000982408 -0.00101807 -0.00102193 -0.000941223 -0.000946701 -0.000982408 -0.000987231 -0.000946701 -0.000952738 -0.000987231 -0.000992364 -0.000982408 -0.000987231 -0.00102193 -0.00102605 -0.000987231 -0.000992364 -0.00102605 -0.0010303 -0.000866202 -0.000874925 -0.000910911 -0.000918538 -0.000874925 -0.000884739 -0.000918538 -0.00092662 -0.000910911 -0.000918538 -0.000952738 -0.000959155 -0.000918538 -0.00092662 -0.000959155 -0.000965665 -0.000884739 -0.000895035 -0.00092662 -0.000934661 -0.000895035 -0.000904932 -0.000934661 -0.000942229 -0.00092662 -0.000934661 -0.000965665 -0.000971939 -0.000934661 -0.000942229 -0.000971939 -0.000977724 -0.000952738 -0.000959155 -0.000992364 -0.000997629 -0.000959155 -0.000965665 -0.000997629 -0.0010028 -0.000992364 -0.000997629 -0.0010303 -0.00103454 -0.000997629 -0.0010028 -0.00103454 -0.00103859 -0.000965665 -0.000971939 -0.0010028 -0.00100766 -0.000971939 -0.000977724 -0.00100766 -0.00101205 -0.0010028 -0.00100766 -0.00103859 -0.0010423 -0.00100766 -0.00101205 -0.0010423 -0.00104559 -0.00100142 -0.0010016 -0.0010417 -0.00104186 -0.0010016 -0.00100219 -0.00104186 -0.00104242 -0.0010417 -0.00104186 -0.00108104 -0.00108119 -0.00104186 -0.00104242 -0.00108119 -0.00108169 -0.00100219 -0.00100319 -0.00104242 -0.00104336 -0.00100319 -0.00100461 -0.00104336 -0.00104469 -0.00104242 -0.00104336 -0.00108169 -0.00108255 -0.00104336 -0.00104469 -0.00108255 -0.00108375 -0.00108104 -0.00108119 -0.00111947 -0.0011196 -0.00108119 -0.00108169 -0.0011196 -0.00112004 -0.00111947 -0.0011196 -0.00115702 -0.00115713 -0.0011196 -0.00112004 -0.00115713 -0.00115751 -0.00108169 -0.00108255 -0.00112004 -0.00112079 -0.00108255 -0.00108375 -0.00112079 -0.00112183 -0.00112004 -0.00112079 -0.00115751 -0.00115813 -0.00112079 -0.00112183 -0.00115813 -0.001159 -0.00100461 -0.00100646 -0.00104469 -0.0010464 -0.00100646 -0.00100873 -0.0010464 -0.00104848 -0.00104469 -0.0010464 -0.00108375 -0.00108528 -0.0010464 -0.00104848 -0.00108528 -0.00108713 -0.00100873 -0.00101144 -0.00104848 -0.00105093 -0.00101144 -0.00101456 -0.00105093 -0.0010537 -0.00104848 -0.00105093 -0.00108713 -0.00108927 -0.00105093 -0.0010537 -0.00108927 -0.00109166 -0.00108375 -0.00108528 -0.00112183 -0.00112316 -0.00108528 -0.00108713 -0.00112316 -0.00112475 -0.00112183 -0.00112316 -0.001159 -0.00116011 -0.00112316 -0.00112475 -0.00116011 -0.00116141 -0.00108713 -0.00108927 -0.00112475 -0.00112656 -0.00108927 -0.00109166 -0.00112656 -0.00112856 -0.00112475 -0.00112656 -0.00116141 -0.00116289 -0.00112656 -0.00112856 -0.00116289 -0.0011645 -0.00115702 -0.00115713 -0.00119378 -0.00119386 -0.00115713 -0.00115751 -0.00119386 -0.00119415 -0.00119378 -0.00119386 -0.00122979 -0.00122985 -0.00119386 -0.00119415 -0.00122985 -0.00123005 -0.00115751 -0.00115813 -0.00119415 -0.00119464 -0.00115813 -0.001159 -0.00119464 -0.00119533 -0.00119415 -0.00119464 -0.00123005 -0.0012304 -0.00119464 -0.00119533 -0.0012304 -0.00123088 -0.00122979 -0.00122985 -0.00126517 -0.00126519 -0.00122985 -0.00123005 -0.00126519 -0.0012653 -0.00126517 -0.00126519 -0.0013 -0.0013 -0.00126519 -0.0012653 -0.0013 -0.0013 -0.00123005 -0.0012304 -0.0012653 -0.00126548 -0.0012304 -0.00123088 -0.00126548 -0.00126574 -0.0012653 -0.00126548 -0.0013 -0.0013 -0.00126548 -0.00126574 -0.0013 -0.0013 -0.001159 -0.00116011 -0.00119533 -0.00119619 -0.00116011 -0.00116141 -0.00119619 -0.0011972 -0.00119533 -0.00119619 -0.00123088 -0.00123148 -0.00119619 -0.0011972 -0.00123148 -0.00123218 -0.00116141 -0.00116289 -0.0011972 -0.00119834 -0.00116289 -0.0011645 -0.00119834 -0.00119956 -0.0011972 -0.00119834 -0.00123218 -0.00123297 -0.00119834 -0.00119956 -0.00123297 -0.00123381 -0.00123088 -0.00123148 -0.00126574 -0.00126605 -0.00123148 -0.00123218 -0.00126605 -0.00126643 -0.00126574 -0.00126605 -0.0013 -0.0013 -0.00126605 -0.00126643 -0.0013 -0.0013 -0.00123218 -0.00123297 -0.00126643 -0.00126684 -0.00123297 -0.00123381 -0.00126684 -0.00126728 -0.00126643 -0.00126684 -0.0013 -0.0013 -0.00126684 -0.00126728 -0.0013 -0.0013 -0.00101456 -0.00101807 -0.0010537 -0.00105677 -0.00101807 -0.00102193 -0.00105677 -0.00106006 -0.0010537 -0.00105677 -0.00109166 -0.00109426 -0.00105677 -0.00106006 -0.00109426 -0.00109699 -0.00102193 -0.00102605 -0.00106006 -0.00106348 -0.00102605 -0.0010303 -0.00106348 -0.00106693 -0.00106006 -0.00106348 -0.00109699 -0.00109977 -0.00106348 -0.00106693 -0.00109977 -0.0011025 -0.00109166 -0.00109426 -0.00112856 -0.0011307 -0.00109426 -0.00109699 -0.0011307 -0.0011329 -0.00112856 -0.0011307 -0.0011645 -0.0011662 -0.0011307 -0.0011329 -0.0011662 -0.00116791 -0.00109699 -0.00109977 -0.0011329 -0.0011351 -0.00109977 -0.0011025 -0.0011351 -0.00113721 -0.0011329 -0.0011351 -0.00116791 -0.00116959 -0.0011351 -0.00113721 -0.00116959 -0.00117116 -0.0010303 -0.00103454 -0.00106693 -0.00107027 -0.00103454 -0.00103859 -0.00107027 -0.00107338 -0.00106693 -0.00107027 -0.0011025 -0.00110508 -0.00107027 -0.00107338 -0.00110508 -0.00110742 -0.00103859 -0.0010423 -0.00107338 -0.00107616 -0.0010423 -0.00104559 -0.00107616 -0.00107855 -0.00107338 -0.00107616 -0.00110742 -0.00110943 -0.00107616 -0.00107855 -0.00110943 -0.00111111 -0.0011025 -0.00110508 -0.00113721 -0.00113914 -0.00110508 -0.00110742 -0.00113914 -0.00114083 -0.00113721 -0.00113914 -0.00117116 -0.00117255 -0.00113914 -0.00114083 -0.00117255 -0.00117372 -0.00110742 -0.00110943 -0.00114083 -0.00114223 -0.00110943 -0.00111111 -0.00114223 -0.00114333 -0.00114083 -0.00114223 -0.00117372 -0.00117463 -0.00114223 -0.00114333 -0.00117463 -0.00117528 -0.0011645 -0.0011662 -0.00119956 -0.00120083 -0.0011662 -0.00116791 -0.00120083 -0.0012021 -0.00119956 -0.00120083 -0.00123381 -0.00123467 -0.00120083 -0.0012021 -0.00123467 -0.00123551 -0.00116791 -0.00116959 -0.0012021 -0.00120331 -0.00116959 -0.00117116 -0.00120331 -0.00120441 -0.0012021 -0.00120331 -0.00123551 -0.0012363 -0.00120331 -0.00120441 -0.0012363 -0.001237 -0.00123381 -0.00123467 -0.00126728 -0.00126772 -0.00123467 -0.00123551 -0.00126772 -0.00126815 -0.00126728 -0.00126772 -0.0013 -0.0013 -0.00126772 -0.00126815 -0.0013 -0.0013 -0.00123551 -0.0012363 -0.00126815 -0.00126855 -0.0012363 -0.001237 -0.00126855 -0.00126888 -0.00126815 -0.00126855 -0.0013 -0.0013 -0.00126855 -0.00126888 -0.0013 -0.0013 -0.00117116 -0.00117255 -0.00120441 -0.00120536 -0.00117255 -0.00117372 -0.00120536 -0.00120611 -0.00120441 -0.00120536 -0.001237 -0.00123757 -0.00120536 -0.00120611 -0.00123757 -0.00123799 -0.00117372 -0.00117463 -0.00120611 -0.00120664 -0.00117463 -0.00117528 -0.00120664 -0.00120696 -0.00120611 -0.00120664 -0.00123799 -0.00123825 -0.00120664 -0.00120696 -0.00123825 -0.00123835 -0.001237 -0.00123757 -0.00126888 -0.00126915 -0.00123757 -0.00123799 -0.00126915 -0.00126932 -0.00126888 -0.00126915 -0.0013 -0.0013 -0.00126915 -0.00126932 -0.0013 -0.0013 -0.00123799 -0.00123825 -0.00126932 -0.0012694 -0.00123825 -0.00123835 -0.0012694 -0.00126939 -0.00126932 -0.0012694 -0.0013 -0.0013 -0.0012694 -0.00126939 -0.0013 -0.0013 -0.00064756 -0.000746664 -0.00076482 -0.000788822 -0.000746664 -0.000805507 -0.000788822 -0.000821852 -0.00076482 -0.000788822 -0.000819022 -0.000837202 -0.000788822 -0.000821852 -0.000837202 -0.000854699 -0.000805507 -0.000845505 -0.000821852 -0.000852984 -0.000845505 -0.000875782 -0.000852984 -0.00087959 -0.000821852 -0.000852984 -0.000854699 -0.000874727 -0.000852984 -0.00087959 -0.000874727 -0.000894648 -0.000819022 -0.000837202 -0.000864817 -0.000877116 -0.000837202 -0.000854699 -0.000877116 -0.000889495 -0.000864817 -0.000877116 -0.000904932 -0.00091416 -0.000877116 -0.000889495 -0.00091416 -0.000923054 -0.000854699 -0.000874727 -0.000889495 -0.000902625 -0.000874727 -0.000894648 -0.000902625 -0.000916657 -0.000889495 -0.000902625 -0.000923054 -0.000932351 -0.000902625 -0.000916657 -0.000932351 -0.000942248 -0.000875782 -0.000899908 -0.00087959 -0.000901976 -0.000899908 -0.00091965 -0.000901976 -0.000920821 -0.00087959 -0.000901976 -0.000894648 -0.000913001 -0.000901976 -0.000920821 -0.000913001 -0.000929322 -0.00091965 -0.000936008 -0.000920821 -0.000936709 -0.000936008 -0.000949623 -0.000936709 -0.000950091 -0.000920821 -0.000936709 -0.000929322 -0.000943575 -0.000936709 -0.000950091 -0.000943575 -0.000955867 -0.000894648 -0.000913001 -0.000916657 -0.000930614 -0.000913001 -0.000929322 -0.000930614 -0.000943773 -0.000916657 -0.000930614 -0.000942248 -0.000952502 -0.000930614 -0.000943773 -0.000952502 -0.000962626 -0.000929322 -0.000943575 -0.000943773 -0.00095576 -0.000943575 -0.000955867 -0.00095576 -0.000966416 -0.000943773 -0.00095576 -0.000962626 -0.00097222 -0.00095576 -0.000966416 -0.00097222 -0.000981022 -0.000904932 -0.00091416 -0.000942229 -0.000949177 -0.00091416 -0.000923054 -0.000949177 -0.000955792 -0.000942229 -0.000949177 -0.000977724 -0.000982982 -0.000949177 -0.000955792 -0.000982982 -0.000987898 -0.000923054 -0.000932351 -0.000955792 -0.000962498 -0.000932351 -0.000942248 -0.000962498 -0.000969581 -0.000955792 -0.000962498 -0.000987898 -0.00099277 -0.000962498 -0.000969581 -0.00099277 -0.000997833 -0.000977724 -0.000982982 -0.00101205 -0.00101599 -0.000982982 -0.000987898 -0.00101599 -0.0010196 -0.00101205 -0.00101599 -0.00104559 -0.00104847 -0.00101599 -0.0010196 -0.00104847 -0.00105104 -0.000987898 -0.00099277 -0.0010196 -0.00102309 -0.00099277 -0.000997833 -0.00102309 -0.00102666 -0.0010196 -0.00102309 -0.00105104 -0.00105347 -0.00102309 -0.00102666 -0.00105347 -0.0010559 -0.000942248 -0.000952502 -0.000969581 -0.000977013 -0.000952502 -0.000962626 -0.000977013 -0.00098457 -0.000969581 -0.000977013 -0.000997833 -0.00100316 -0.000977013 -0.00098457 -0.00100316 -0.00100866 -0.000962626 -0.00097222 -0.00098457 -0.000991963 -0.00097222 -0.000981022 -0.000991963 -0.000998945 -0.00098457 -0.000991963 -0.00100866 -0.00101418 -0.000991963 -0.000998945 -0.00101418 -0.00101952 -0.000997833 -0.00100316 -0.00102666 -0.00103039 -0.00100316 -0.00100866 -0.00103039 -0.0010343 -0.00102666 -0.00103039 -0.0010559 -0.00105842 -0.00103039 -0.0010343 -0.00105842 -0.00106108 -0.00100866 -0.00101418 -0.0010343 -0.00103828 -0.00101418 -0.00101952 -0.00103828 -0.00104221 -0.0010343 -0.00103828 -0.00106108 -0.00106383 -0.00103828 -0.00104221 -0.00106383 -0.00106661 -0.000949623 -0.000960933 -0.000950091 -0.000961305 -0.000960933 -0.000970254 -0.000961305 -0.000970608 -0.000950091 -0.000961305 -0.000955867 -0.000966342 -0.000961305 -0.000970608 -0.000966342 -0.000975142 -0.000970254 -0.000977819 -0.000970608 -0.000978199 -0.000977819 -0.000983802 -0.000978199 -0.000984228 -0.000970608 -0.000978199 -0.000975142 -0.000982387 -0.000978199 -0.000984228 -0.000982387 -0.000988182 -0.000955867 -0.000966342 -0.000966416 -0.000975701 -0.000966342 -0.000975142 -0.000975701 -0.00098363 -0.000966416 -0.000975701 -0.000981022 -0.000988882 -0.000975701 -0.00098363 -0.000988882 -0.000995721 -0.000975142 -0.000982387 -0.00098363 -0.00099024 -0.000982387 -0.000988182 -0.00099024 -0.000995576 -0.00098363 -0.00099024 -0.000995721 -0.00100151 -0.00099024 -0.000995576 -0.00100151 -0.00100623 -0.000983802 -0.000988334 -0.000984228 -0.000988808 -0.000988334 -0.000991507 -0.000988808 -0.000992023 -0.000984228 -0.000988808 -0.000988182 -0.000992607 -0.000988808 -0.000992023 -0.000992607 -0.000995724 -0.000991507 -0.000993386 -0.000992023 -0.00099393 -0.000993386 -0.000994009 -0.00099393 -0.000994561 -0.000992023 -0.00099393 -0.000995724 -0.000997577 -0.00099393 -0.000994561 -0.000997577 -0.000998192 -0.000988182 -0.000992607 -0.000995576 -0.000999678 -0.000992607 -0.000995724 -0.000999678 -0.00100258 -0.000995576 -0.000999678 -0.00100623 -0.00100989 -0.000999678 -0.00100258 -0.00100989 -0.00101249 -0.000995724 -0.000997577 -0.00100258 -0.00100431 -0.000997577 -0.000998192 -0.00100431 -0.00100489 -0.00100258 -0.00100431 -0.00101249 -0.00101405 -0.00100431 -0.00100489 -0.00101405 -0.00101457 -0.000981022 -0.000988882 -0.000998945 -0.00100533 -0.000988882 -0.000995721 -0.00100533 -0.001011 -0.000998945 -0.00100533 -0.00101952 -0.00102452 -0.00100533 -0.001011 -0.00102452 -0.00102904 -0.000995721 -0.00100151 -0.001011 -0.00101587 -0.00100151 -0.00100623 -0.00101587 -0.00101989 -0.001011 -0.00101587 -0.00102904 -0.00103298 -0.00101587 -0.00101989 -0.00103298 -0.00103628 -0.00101952 -0.00102452 -0.00104221 -0.00104597 -0.00102452 -0.00102904 -0.00104597 -0.00104944 -0.00104221 -0.00104597 -0.00106661 -0.00106932 -0.00104597 -0.00104944 -0.00106932 -0.00107186 -0.00102904 -0.00103298 -0.00104944 -0.00105251 -0.00103298 -0.00103628 -0.00105251 -0.00105511 -0.00104944 -0.00105251 -0.00107186 -0.00107415 -0.00105251 -0.00105511 -0.00107415 -0.00107612 -0.00100623 -0.00100989 -0.00101989 -0.00102303 -0.00100989 -0.00101249 -0.00102303 -0.00102528 -0.00101989 -0.00102303 -0.00103628 -0.00103888 -0.00102303 -0.00102528 -0.00103888 -0.00104076 -0.00101249 -0.00101405 -0.00102528 -0.00102664 -0.00101405 -0.00101457 -0.00102664 -0.00102709 -0.00102528 -0.00102664 -0.00104076 -0.0010419 -0.00102664 -0.00102709 -0.0010419 -0.00104227 -0.00103628 -0.00103888 -0.00105511 -0.00105719 -0.00103888 -0.00104076 -0.00105719 -0.0010587 -0.00105511 -0.00105719 -0.00107612 -0.00107771 -0.00105719 -0.0010587 -0.00107771 -0.00107887 -0.00104076 -0.0010419 -0.0010587 -0.00105961 -0.0010419 -0.00104227 -0.00105961 -0.00105992 -0.0010587 -0.00105961 -0.00107887 -0.00107958 -0.00105961 -0.00105992 -0.00107958 -0.00107981 -0.00104559 -0.00104847 -0.00107855 -0.00108059 -0.00104847 -0.00105104 -0.00108059 -0.00108234 -0.00107855 -0.00108059 -0.00111111 -0.00111246 -0.00108059 -0.00108234 -0.00111246 -0.00111356 -0.00105104 -0.00105347 -0.00108234 -0.00108393 -0.00105347 -0.0010559 -0.00108393 -0.00108548 -0.00108234 -0.00108393 -0.00111356 -0.0011145 -0.00108393 -0.00108548 -0.0011145 -0.00111537 -0.00111111 -0.00111246 -0.00114333 -0.00114415 -0.00111246 -0.00111356 -0.00114415 -0.00114474 -0.00114333 -0.00114415 -0.00117528 -0.00117569 -0.00114415 -0.00114474 -0.00117569 -0.0011759 -0.00111356 -0.0011145 -0.00114474 -0.00114518 -0.0011145 -0.00111537 -0.00114518 -0.00114554 -0.00114474 -0.00114518 -0.0011759 -0.00117597 -0.00114518 -0.00114554 -0.00117597 -0.00117598 -0.0010559 -0.00105842 -0.00108548 -0.00108708 -0.00105842 -0.00106108 -0.00108708 -0.00108877 -0.00108548 -0.00108708 -0.00111537 -0.00111626 -0.00108708 -0.00108877 -0.00111626 -0.00111722 -0.00106108 -0.00106383 -0.00108877 -0.00109056 -0.00106383 -0.00106661 -0.0010905